# vtk DataFile Version 3.0
Point representing Sub_cellular elem model
ASCII

DATASET UNSTRUCTURED_GRID
POINTS 1336 float
2.28268 -22.98564 0.42675 
-20.92549 5.45991 -6.42734 
-10.90417 14.33930 -10.79531 
15.40268 23.42263 -3.33135 
12.86119 -6.15926 5.33935 
-11.15836 -11.60784 24.50024 
-12.54485 -21.85712 -6.89537 
-17.35769 -10.14612 -0.10558 
19.11144 -15.37826 6.03320 
-1.64837 10.97974 -16.23963 
11.45592 4.68153 4.26589 
-20.14630 -12.97519 -2.20783 
-9.18592 -8.63868 -5.39023 
13.27236 11.67002 19.68115 
-1.44355 -22.43648 4.16817 
-2.49702 -20.12889 -11.78008 
-4.82134 -2.39463 -27.04694 
1.58988 0.39684 24.39096 
25.25696 8.59775 2.15000 
-3.15455 -20.71359 16.67650 
13.01192 0.52100 5.09390 
-6.22019 5.95295 13.44716 
13.37708 0.65607 10.50525 
13.75800 3.25081 -21.40472 
-0.65361 10.65400 -11.62299 
9.69427 -2.54150 -21.66248 
15.14627 -19.94482 -0.33769 
-17.03312 11.62070 -19.15832 
-2.17945 -23.11303 3.63684 
17.99723 -1.80912 7.04541 
16.42278 -3.71162 -12.59972 
-13.92893 -10.46063 -20.25292 
3.34745 17.19196 6.83969 
-16.30831 21.39608 0.39800 
16.69409 7.46958 1.59718 
-0.10224 -7.42292 -9.88878 
-12.83652 -21.87953 1.47503 
21.17424 -1.48327 1.84127 
13.78197 5.09539 -19.68170 
-19.37285 -5.42131 -8.57778 
15.74989 6.67904 7.10882 
3.35462 -7.40268 -6.80839 
-8.92032 9.68219 8.48765 
6.83724 1.68749 -11.50943 
-23.70768 -1.82606 6.43603 
22.54700 -6.11838 12.14689 
-7.87298 19.57874 -2.03381 
5.88647 -3.89562 19.02584 
-26.65932 2.78448 -11.90883 
10.84863 21.29212 11.38729 
-1.93054 17.64355 -20.98421 
16.72179 9.52983 1.78900 
-8.14839 7.42009 -25.87411 
2.89429 3.08622 8.13757 
19.81429 -20.98494 0.38441 
26.86450 2.71067 3.46293 
13.55722 17.13741 3.66789 
-6.56489 -14.46170 3.35373 
-18.59299 -2.02493 1.32509 
-13.76489 -3.16715 -23.76076 
6.61039 -18.05512 -19.16189 
0.62075 -6.66202 -25.05162 
-9.52177 7.90393 10.08355 
-1.70106 -25.54238 3.32450 
9.62228 22.25246 -10.45308 
-3.55205 -3.11677 27.85775 
13.41903 15.18242 13.71798 
11.44879 23.23110 -7.41096 
4.11243 24.84214 8.75302 
25.76318 4.88665 4.62535 
14.36045 9.84164 10.89672 
11.89584 19.57662 -7.05061 
0.58135 -22.62962 -12.27062 
19.30204 6.46865 12.84258 
-22.56103 -15.11860 3.28791 
-18.84882 -1.30927 12.93545 
-18.41952 19.37606 4.29426 
-19.21999 -17.36812 -0.00043 
3.06398 12.32620 13.46673 
7.74201 14.66155 -20.48782 
8.73480 0.52705 -24.44522 
-8.48619 -8.59426 -2.48884 
17.68577 -8.95956 6.19193 
3.40791 -24.80443 7.42460 
16.65748 -6.65120 -17.09749 
-4.65732 -20.03589 11.16598 
13.85306 4.26246 -17.87987 
5.81247 19.35138 15.71304 
12.81661 20.19833 -6.65389 
-2.71875 7.57730 -11.92872 
-14.97805 3.23023 -12.55069 
-16.06773 16.50316 -17.62574 
-7.56892 -2.16292 7.41948 
14.75841 16.40290 -15.61502 
-12.34739 9.19104 -20.20363 
-0.99227 -22.50633 -5.61438 
5.62787 -11.12266 -24.14926 
17.13810 23.84456 1.52185 
3.10209 3.25384 -6.39304 
-27.17305 1.90500 0.63897 
-25.81722 -3.15632 -4.11627 
8.66501 -21.25515 5.83182 
20.28225 8.58201 10.93332 
-6.61678 21.65243 -11.59511 
1.63162 -19.01566 -10.14298 
7.16039 2.12431 25.11478 
-0.57713 -9.61077 -24.18635 
-15.90086 -12.05408 15.87743 
-5.55750 23.11352 9.93423 
-7.46017 1.55897 -6.97369 
2.18171 -7.05115 -9.22011 
8.80946 -3.20161 24.99068 
11.41773 -17.41127 -20.63626 
-11.76510 -8.10547 16.76004 
5.61546 7.42395 -21.51615 
11.56062 -24.23741 1.36724 
-2.31170 24.69767 11.64301 
16.96544 -7.34178 10.76582 
-11.70443 -15.59922 9.38967 
20.60946 5.23244 12.11870 
15.02248 -11.98146 -7.63863 
-12.55370 24.68888 3.74090 
24.93519 -4.48177 -11.45138 
7.91129 12.16332 2.62633 
13.08983 7.18440 24.32988 
-20.05191 -3.37541 -5.83633 
25.56584 -8.63096 -9.45082 
2.82182 -6.11390 -11.06686 
-15.31206 -18.09555 5.17094 
-8.75493 16.91548 -2.70317 
-5.24197 -8.23301 26.46660 
-1.67843 -2.48992 -24.22835 
24.24549 13.97605 -6.45514 
-26.08105 -8.53753 5.49231 
-23.11782 -2.33820 -15.07365 
4.86715 18.67379 15.90786 
15.72788 11.13811 -5.80537 
-5.42653 -0.82286 -26.03622 
-15.02689 13.89602 -15.34130 
23.73964 -13.65451 1.36298 
6.12539 5.09153 -7.33692 
-0.32766 10.36074 2.33061 
10.66376 8.81370 -19.95258 
11.86944 -4.24985 -12.64208 
16.41983 -16.48962 -9.62773 
-1.38907 18.98188 -21.47362 
-13.22163 16.56040 12.43564 
17.99173 -14.91135 16.22375 
6.62940 20.65920 -18.70648 
-12.32471 -21.87009 -2.01811 
0.55585 -10.01336 -24.32534 
-9.41486 17.65567 6.09413 
-6.92904 24.29631 -5.44754 
4.27559 -5.38055 -15.15097 
16.83638 -3.82147 -7.02194 
-11.67222 3.81963 9.53722 
15.24016 4.69798 3.46196 
-2.81165 22.91345 -6.82601 
-10.99546 11.63508 6.19356 
-2.88680 -10.45537 15.78530 
-4.71736 18.17065 -17.10251 
0.34524 0.40080 26.07274 
-11.46893 12.49907 -18.67578 
-0.61671 -22.48915 -19.32733 
-3.74400 25.11556 9.77041 
6.85719 15.43793 -21.64991 
3.96059 -16.82453 -10.00287 
-7.23656 8.89857 -4.66489 
8.61631 11.68723 21.34952 
4.66705 -6.59323 12.17356 
14.15873 9.67099 -15.43215 
-2.54359 -16.24737 12.52508 
-18.54991 -7.16787 -19.70134 
-15.76436 -14.39090 -18.82731 
19.43759 21.37158 -7.24452 
10.30903 -9.04382 -9.41835 
15.55369 -14.22235 -19.05695 
13.09139 -0.75962 12.85134 
-4.33641 -13.15048 8.69195 
-5.76452 26.55662 -8.92416 
4.85255 2.66030 -11.59968 
-18.72937 4.43746 18.60299 
-23.22830 -2.07553 5.63264 
-15.07175 16.21252 9.69621 
-19.34470 11.77228 13.76287 
23.59606 -10.56618 -0.12218 
-12.59896 5.33967 15.95637 
-23.39670 -15.24517 1.95434 
-5.12045 8.28175 -7.58729 
-24.78404 5.89176 -7.31049 
5.62431 4.88312 28.87338 
-1.16446 -22.06195 -6.57631 
-12.29831 -12.41427 -14.08005 
13.82801 -0.35480 -2.93143 
-4.50898 16.60377 -3.83165 
-9.91499 2.78951 21.93001 
-14.14124 -10.52226 10.46817 
12.56371 5.89945 26.57960 
21.17197 -7.32318 2.67605 
11.63720 7.20132 11.48638 
-16.55023 -15.24269 2.08012 
-21.86537 -11.91168 10.06318 
3.73740 -0.41903 14.09686 
2.98201 7.02083 -21.49387 
-3.11569 -6.12330 7.97061 
18.36190 -8.71916 -17.16107 
-0.96309 11.45799 16.52211 
-2.63471 -15.12567 16.53870 
4.62597 -28.28065 5.15321 
-3.00181 -3.45518 -20.46551 
-14.57682 3.83218 24.33947 
-16.57013 -18.91802 -1.16230 
5.47356 9.66790 25.69296 
-3.83499 -22.44148 16.63090 
3.47331 -10.79030 -13.51739 
-15.59873 -0.11825 10.99484 
7.73983 -1.16442 19.59342 
-1.70678 14.00555 2.09626 
5.92801 4.31982 5.22292 
17.14421 12.79012 -10.07010 
4.26679 -9.07981 3.76144 
-0.49593 21.80311 1.76313 
4.34499 -1.63705 -18.53173 
4.36417 -28.73822 -6.01861 
17.33658 -11.91721 -15.22269 
5.48767 -7.41630 22.02254 
8.89749 -8.76751 -15.25980 
19.07288 -2.90509 8.39986 
-2.74231 -13.54128 -6.27919 
-20.11705 5.18295 5.12215 
-18.59381 -5.39863 -20.67233 
-16.73681 5.75635 2.16260 
17.88189 -4.55536 -12.93065 
-9.25613 26.36988 6.74864 
-25.80427 -3.29421 9.42086 
4.40659 -23.94160 8.89018 
-5.33301 16.41518 16.70584 
21.55475 0.25201 -2.82773 
-22.87017 4.33786 -2.64097 
25.38104 -13.69372 -0.10452 
21.36561 1.96691 3.25660 
-7.59335 -25.73223 5.76984 
-0.44801 -8.61140 -18.99236 
-9.69118 -24.23367 2.42606 
-9.90129 -0.95930 21.98140 
-6.71033 5.45927 -23.33202 
20.41643 4.61285 -11.85948 
8.42492 -8.76309 21.88560 
-16.76946 -8.44702 -19.21992 
-17.48917 -7.09135 -14.47556 
-16.10690 -6.99402 -10.07735 
-21.75400 -5.03847 -7.91036 
12.71036 -5.99150 15.35774 
-5.69463 -5.22433 -27.75702 
26.57671 6.95041 11.90961 
-13.80384 4.32854 4.27994 
-3.22396 -13.98731 -4.60735 
14.55395 -6.41406 -9.16139 
-16.61581 4.63746 23.15439 
-1.41243 -19.56058 -7.53788 
23.01574 -12.31144 -10.34575 
-26.76340 -5.39027 -9.07213 
-8.71401 15.43109 2.34588 
-0.35224 -29.85747 0.26634 
3.02399 -2.83842 -13.89326 
15.29346 6.69751 -12.21258 
3.43421 -11.73043 -3.25589 
-6.90642 10.20621 -22.84681 
-14.97208 11.93785 -4.98314 
-7.56306 -22.42519 0.91910 
-2.95598 16.92541 -1.61745 
-4.07571 12.69766 -24.04724 
25.57898 10.75390 4.40052 
4.38767 -14.76571 9.25206 
-14.78892 -6.70888 -20.41308 
22.75893 6.05625 -10.23741 
-3.62050 21.88758 2.23763 
2.40128 2.75536 -10.83473 
5.96761 -10.23472 25.42660 
4.36015 -3.85609 -14.89900 
0.94132 19.35662 14.86408 
2.03838 3.69920 3.77380 
7.56047 2.64496 -16.43019 
-3.37430 -12.50385 -5.81651 
9.62721 20.82339 -2.47099 
-5.05672 2.65577 23.01768 
-25.54303 -13.22638 -0.51522 
-14.55701 0.16159 -10.07368 
22.54657 -10.98935 5.89755 
22.43001 17.94101 0.72119 
-4.71894 -17.34737 16.93445 
7.71526 -12.81310 -12.21053 
-12.96930 12.45263 4.29171 
-13.69921 5.12855 4.26756 
12.30724 19.25307 6.00651 
-23.88838 -13.05974 -3.33547 
15.21596 17.58913 12.21902 
1.69604 -14.38762 15.39243 
-12.05226 -10.31484 16.94239 
-6.35842 -3.02541 -13.22343 
20.30210 -1.56755 3.02964 
3.35263 -12.29064 16.41383 
15.05458 -16.64853 -6.12466 
-0.18129 13.87644 19.47605 
0.31659 8.94572 -14.38222 
-5.41446 6.48529 22.25095 
20.23803 2.44386 20.30208 
0.50329 -4.36525 28.42664 
10.35220 -9.20839 -3.31187 
9.29433 -6.86995 9.16054 
8.97651 1.32315 0.00004 
7.28733 2.81081 2.56807 
-1.41941 -7.72739 -22.51564 
25.89294 -13.97282 -5.36110 
-16.15167 -12.38986 -6.43637 
-0.42592 -16.45018 -7.88308 
-5.79815 -8.71753 10.69948 
17.47254 11.37641 15.89218 
-0.25790 -4.33974 -15.09087 
0.06373 -23.04511 -10.35133 
26.38304 9.05355 4.19417 
-5.66559 18.85480 13.81794 
-4.24244 12.59807 -5.79223 
23.64211 9.60814 13.25110 
-21.02554 3.42895 19.47901 
20.28276 0.82777 21.97580 
-8.69944 -8.65538 27.30417 
23.83557 2.14665 -13.04914 
-5.77241 -6.88285 24.94139 
-3.70238 10.17287 2.75834 
-7.81894 9.84853 -24.67361 
-19.65508 -20.20738 2.82637 
-6.76417 -0.51820 -23.86338 
-2.13629 -2.93987 -6.29795 
25.33040 6.46044 6.28222 
-18.37325 -10.17444 16.94273 
15.26308 18.06660 -1.86893 
-16.83710 -0.48389 -13.95143 
11.27592 10.45343 -4.29503 
-6.73150 24.87084 10.91060 
14.57551 15.85795 7.27247 
-17.92338 -7.47049 -9.97527 
19.73493 -10.64698 -12.17808 
18.76857 -2.20558 11.20903 
-0.83519 13.54652 23.79973 
-4.48428 -18.79008 15.79704 
4.58565 5.93958 17.32226 
-8.57098 3.14192 -17.18025 
-19.95171 20.54175 -5.17037 
0.04060 19.63070 -3.61928 
10.66568 7.76799 -15.43228 
-1.05649 8.70516 21.74076 
[...]
CELL_DATA 2734
SCALARS Fiber_Strain double 
LOOKUP_TABLE default 
-0.00015
-0.00036
-0.00003
0.00001
0.00139
-0.00256
0.00009
-0.00005
0.00009
-0.00489
0.00053
-0.00830
0.00005
0.00002
-0.00014
-0.00010
-0.00002
0.00043
-0.00002
0.00003
-0.00067
0.00002
0.00001
0.00004
-0.00031
0.00049
-0.00002
0.00072
-0.00000
0.00004
-0.00024
-0.00444
-0.00000
-0.00005
-0.00001
0.00162
0.00013
0.00124
0.00028
0.00067
-0.00184
-0.00038
0.00003
-0.00010
0.00006
-0.00027
-0.00448
-0.00003
0.00689
0.00003
0.00010
0.00010
0.00001
0.00001
-0.00004
-0.00003
0.02658
0.00010
0.00023
-0.00060
0.00422
0.02416
-0.00019
-0.00057
0.00068
0.00072
0.00009
0.00020
-0.00125
-0.00130
0.00623
0.00030
-0.00030
-0.00016
-0.00774
-0.01669
0.00047
-0.00025
-0.00006
-0.12692
-0.00077
0.00009
0.00005
-0.00681
-0.00568
0.00014
-0.02177
-0.00211
-0.00225
0.00005
0.00244
0.04382
-0.00092
0.00147
-0.00816
-0.00166
0.00010
-0.00247
-0.00048
0.00145
-0.03135
0.00017
-0.00005
-0.01920
-0.05215
0.00005
0.00003
-0.17062
-0.01345
0.00018
-0.01366
-0.00038
-0.00045
-0.00003
-0.01566
0.00001
-0.00031
-0.03624
0.02562
0.00002
-0.00004
0.00589
0.03384
-0.09723
0.00034
-0.00083
-0.01925
0.05870
-0.00504
-0.00223
-0.06657
0.00001
0.00005
0.01595
-0.00346
-0.00003
-0.00011
0.00002
-0.00034
0.00019
0.00074
0.00010
-0.00067
0.00061
-0.00046
-0.00058
-0.00016
0.00117
0.00009
0.00004
-0.00930
-0.03238
0.00000
0.00007
0.03793
-0.00002
-0.00005
-0.03796
-0.00283
-0.00031
0.00325
0.00015
-0.00134
-0.00015
-0.06909
-0.00090
0.00010
-0.00010
0.00196
-0.00253
-0.06288
0.00150
-0.05397
-0.00440
-0.00005
0.00006
0.00314
0.00616
-0.00036
-0.00011
0.00006
-0.00142
-0.01348
-0.03633
-0.03872
0.00001
-0.00033
-0.00009
-0.00595
-0.00052
-0.00010
-0.00008
-0.00068
-0.00059
-0.00008
0.00004
-0.00312
-0.00209
0.00015
0.00224
0.00329
0.10623
0.00029
-0.22083
0.00004
-0.00242
0.01299
0.00395
-0.02997
0.02186
-0.14756
0.06494
-0.00222
0.00379
-0.01435
-0.00043
-0.00057
0.00081
0.00022
-0.03884
0.00165
-0.00252
-0.00404
-0.10805
-0.02994
-0.01445
-0.00071
-0.00009
0.00096
0.00001
0.00070
0.00024
0.01260
-0.00252
0.00002
0.00210
-0.00014
0.00031
-0.00223
0.00952
0.01756
-0.00005
0.00072
0.00481
-0.00051
-0.00063
0.00005
0.00005
-0.00002
0.00014
-0.00009
-0.00036
-0.00015
0.05750
0.01404
-0.00062
-0.00000
0.00504
-0.00011
0.00025
-0.00027
0.00578
-0.00009
-0.00424
0.00105
0.09287
-0.04447
0.00084
-0.00349
0.02116
0.00002
-0.00040
-0.00005
0.00012
-0.00199
0.00115
0.00002
0.00012
-0.00003
0.00032
0.00108
-0.00004
-0.00193
0.00666
0.00254
-0.00372
0.00006
-0.01587
-0.00019
-0.00577
-0.00020
0.00011
-0.01551
-0.00019
0.00136
0.00013
0.00007
-0.02140
-0.00002
-0.00003
-0.00301
0.07080
0.19262
0.00008
-0.02905
-0.00610
-0.00051
-0.00003
0.00022
-0.01636
-0.00022
-0.00034
-0.00018
-0.00128
-0.00282
-0.00003
0.00320
0.00076
-0.00000
0.01894
0.00118
-0.00003
0.00105
-0.00000
-0.00171
0.00026
0.14613
0.00005
0.00025
0.00017
-0.03333
-0.00026
0.00012
0.02594
-0.00076
0.00000
-0.00120
-0.00395
-0.05467
-0.00144
0.00003
-0.04519
-0.01055
0.01070
-0.00337
-0.00043
-0.00001
-0.05255
-0.09794
-0.01020
0.00074
-0.00064
-0.00011
0.00027
-0.02363
0.00224
-0.00011
-0.00306
-0.00005
-0.00211
-0.02277
0.00000
0.00003
0.00006
-0.00491
-0.08353
0.00029
0.00046
-0.00000
-0.00002
-0.00007
-0.04457
-0.00160
-0.00025
-0.00598
-0.00004
0.00762
0.00010
-0.00004
-0.00272
0.14492
-0.05307
0.00003
-0.00002
-0.03360
0.00014
0.00434
0.00838
-0.00651
0.00005
0.00016
0.01039
0.00013
-0.01163
-0.00018
0.00002
-0.00754
0.00094
-0.00004
0.00085
0.00072
0.00029
-0.00850
0.02511
-0.04957
-0.16166
0.06908
0.00005
-0.00002
0.00575
-0.03249
-0.00803
-0.01103
0.00113
-0.00543
-0.00018
-0.01440
0.00007
-0.00015
-0.01269
-0.00331
0.00409
-0.00000
0.09489
-0.00159
-0.00016
-0.12520
0.06459
0.03632
-0.00150
0.00713
0.00006
0.00005
0.00001
0.00040
-0.00055
0.05184
-0.00192
-0.00017
-0.00744
-0.00055
0.03875
-0.01632
-0.00088
-0.00012
-0.00334
-0.00362
-0.00052
-0.00004
-0.00036
-0.03030
-0.00582
0.00007
-0.00127
-0.01538
0.00362
0.01346
0.00002
-0.00002
-0.00120
-0.00021
0.00015
-0.00025
0.00006
0.05179
-0.00970
0.00042
0.00455
0.00010
-0.00078
-0.00164
-0.00005
0.00059
-0.01326
-0.00004
0.06449
-0.00387
-0.00012
-0.00937
0.00062
-0.00066
-0.00016
-0.00631
-0.00001
-0.00007
-0.00002
0.00014
0.00005
-0.00423
0.00615
-0.00827
-0.01306
-0.00121
-0.00114
0.03276
-0.00001
-0.00001
-0.00177
0.00001
0.02898
-0.00019
0.00003
-0.00003
0.00021
0.02686
-0.01487
-0.00001
0.00004
0.01674
0.01797
-0.01611
-0.00801
0.00005
-0.00012
0.00026
-0.00096
-0.00021
0.00003
0.00008
-0.06212
0.00242
-0.10783
-0.00028
0.00015
0.00596
-0.07073
-0.00073
0.02152
-0.00075
0.01517
-0.00019
0.00447
0.00002
-0.00051
-0.00000
-0.00862
-0.00235
-0.05303
0.00012
0.00868
-0.00205
0.00127
0.02183
-0.00013
-0.01438
-0.00156
-0.00095
0.04095
0.01133
0.00031
0.00047
-0.00034
-0.03752
-0.00043
0.00285
-0.03299
0.00907
-0.00942
-0.00043
0.00064
-0.00002
-0.00044
0.02949
-0.00036
0.00020
0.00025
-0.00004
-0.00025
0.00019
-0.00053
-0.00018
-0.07824
0.00059
0.00116
0.04867
-0.00169
0.00341
0.04356
-0.00003
0.02455
0.00947
-0.01155
0.00052
-0.00069
-0.00870
0.13776
-0.00137
0.00038
0.00004
-0.00030
-0.10093
-0.00026
0.00038
-0.00027
0.00184
0.00074
-0.00003
-0.00019
0.00141
0.02769
-0.00195
0.00325
0.00034
-0.00473
-0.00015
0.00285
0.00445
0.00560
-0.01797
0.00014
0.00885
0.00517
-0.00026
-0.08109
0.00002
0.00016
0.00000
-0.00017
-0.00002
-0.00002
-0.00003
0.00000
-0.00000
0.01742
-0.00030
0.05229
-0.00170
-0.00047
0.00170
0.00715
0.00007
-0.00067
0.03000
0.00010
0.00390
-0.00032
0.00317
0.00338
-0.00025
0.01034
-0.00087
0.00149
0.00002
-0.00020
0.02079
-0.01818
0.00000
-0.02174
0.04882
0.00019
-0.04295
0.00009
-0.00005
-0.04346
0.00001
0.00466
-0.00073
0.00054
-0.02576
-0.00186
-0.00001
0.00161
0.00032
-0.00889
-0.00535
0.02603
-0.00016
0.01699
-0.00077
-0.00001
-0.00000
0.00069
0.01487
0.02925
0.00002
0.00074
0.02076
0.00488
-0.00014
0.01171
-0.00361
0.00036
-0.00104
-0.00031
0.00016
0.13348
-0.00040
0.00007
-0.00007
-0.00014
-0.00000
-0.00682
-0.00203
-0.02796
-0.00004
0.00015
-0.00000
-0.00044
0.00004
-0.00009
0.00128
-0.00812
0.00014
-0.00349
0.00235
0.00000
-0.00017
-0.00998
-0.00001
0.00010
0.00176
0.00008
0.00579
-0.00869
0.00530
0.00007
0.06206
-0.00207
-0.00024
-0.00071
-0.00077
-0.03710
0.01914
0.05418
0.00871
0.08544
0.00000
0.01190
0.00266
-0.00108
0.00003
0.00050
-0.02094
0.00010
-0.01347
-0.00001
-0.00017
-0.00386
-0.00057
0.00015
-0.00000
-0.00124
0.00146
-0.00154
0.00002
-0.00015
-0.00709
-0.00004
-0.02683
-0.00002
0.00082
-0.01902
0.02803
-0.00081
0.00004
0.00501
-0.00007
0.00289
0.00072
0.00003
0.02468
0.00003
0.00899
-0.00040
0.01874
0.01401
0.00002
-0.00034
0.00013
0.00555
-0.00003
0.00596
0.00222
0.00359
-0.00002
0.00005
0.00019
0.00032
0.01234
0.00114
0.00124
0.00351
0.00005
-0.01120
0.01051
-0.00008
-0.00124
-0.00024
-0.00008
-0.02681
0.03309
-0.00017
0.05041
0.00005
-0.00114
0.00083
-0.03983
-0.00204
0.02318
-0.00978
-0.00002
-0.00000
-0.00334
0.00025
0.01828
-0.00002
0.00049
0.00006
-0.00053
-0.00164
0.00002
0.00018
-0.00137
0.00022
-0.00089
0.00009
-0.00169
-0.00064
0.00001
-0.00013
-0.00099
-0.00201
0.00021
-0.00070
-0.00003
0.00007
-0.01483
0.00007
-0.03125
0.00030
0.00227
-0.00007
-0.00012
-0.00488
-0.00019
-0.00044
0.00001
-0.00007
-0.00000
-0.00045
0.00090
0.00008
0.00007
0.00064
-0.00002
0.08512
0.00035
0.00134
-0.00002
-0.00059
-0.02270
0.00303
-0.01394
-0.00002
0.00009
-0.05166
0.00008
0.01469
0.00002
-0.00004
0.02282
-0.00000
0.00157
-0.00054
-0.05372
-0.00001
0.00119
0.01354
0.00473
0.00022
-0.00508
-0.00575
-0.00308
-0.01443
0.00064
0.00091
0.00011
0.00576
-0.00015
0.00013
0.00002
-0.00113
-0.00009
0.00183
-0.00050
-0.00032
-0.00005
0.00091
0.00694
0.00069
-0.00019
-0.02037
0.00028
-0.02496
0.00034
-0.00007
0.00013
0.00072
0.00002
-0.00002
-0.00046
-0.00143
-0.03263
0.00036
-0.00252
-0.00039
0.00101
0.00017
-0.00001
-0.00240
0.02864
0.11121
0.00001
-0.02874
0.00008
-0.00231
0.00003
-0.00024
-0.00008
0.00014
-0.00065
0.00054
0.00000
0.00305
0.00117
-0.01985
0.00069
-0.00025
0.01911
0.00001
0.00031
-0.03738
-0.00179
-0.01289
0.00065
-0.00154
-0.00094
-0.00899
-0.01552
-0.00018
0.00022
-0.00004
0.00017
0.01290
0.05923
0.00086
0.00019
0.00973
0.00001
0.00311
0.00018
0.00114
0.00021
0.00009
-0.01166
-0.00011
-0.00069
0.00178
-0.00005
-0.00004
0.00004
-0.00234
-0.03364
0.00182
-0.00008
-0.00769
-0.00057
-0.00039
-0.00280
-0.00003
-0.00012
-0.00010
0.00015
0.00150
0.00045
0.00069
0.00005
0.00004
0.03762
-0.00063
0.00270
0.00981
0.00000
0.04613
-0.08880
-0.00028
0.01147
-0.00052
-0.00085
0.00026
0.00016
0.00002
-0.00001
-0.00776
-0.00185
-0.00016
0.00002
-0.00009
-0.00094
-0.00662
0.01095
0.00003
0.00100
0.00007
-0.00969
-0.00043
0.00457
0.00063
0.00134
-0.00084
-0.00165
0.00085
-0.00010
-0.00057
-0.03321
0.00244
-0.00007
-0.00129
-0.00005
0.00001
0.00010
0.00025
-0.08346
0.00043
-0.00131
-0.00027
0.00099
-0.00004
0.00015
-0.01683
-0.01996
-0.00515
-0.00011
-0.00099
-0.00357
0.00048
-0.00319
0.00040
0.00008
0.00001
-0.00377
-0.00484
0.00369
-0.00001
0.00055
-0.00002
0.00511
-0.00003
0.00016
0.05327
-0.01435
0.00001
-0.00090
0.00080
-0.00101
-0.00037
-0.00872
0.06326
0.00260
0.00052
-0.01542
0.00059
0.00003
0.00080
-0.01343
-0.00018
0.06815
0.04237
-0.00986
0.00180
-0.00000
-0.00002
-0.00060
-0.00008
0.00042
0.00011
0.00006
-0.00028
0.00042
0.00013
0.00006
-0.08745
0.00501
0.00031
0.00084
0.00025
-0.00022
0.00037
-0.00022
0.00030
0.00007
-0.00089
0.00076
-0.00008
0.00041
0.00015
-0.00035
0.05775
-0.00000
0.00000
0.00008
0.00001
-0.00101
-0.00007
-0.00003
0.00001
0.00530
-0.00036
0.00200
-0.00121
-0.00331
-0.00014
0.02286
-0.00101
0.00000
-0.00044
0.01328
-0.00127
0.00012
0.00001
0.00097
0.00002
0.00584
0.10383
0.00010
0.00079
-0.00379
-0.00051
-0.00001
0.00010
-0.00004
0.00057
0.00462
-0.03441
-0.00836
-0.00520
-0.00018
-0.11459
-0.00510
-0.13143
-0.00031
0.00002
-0.00004
-0.00028
-0.00161
-0.00090
0.00292
-0.00001
-0.00007
-0.04178
0.04917
-0.00001
-0.00010
0.00374
0.00105
0.01177
-0.00256
0.00065
-0.00002
-0.00040
-0.00000
-0.01768
0.00055
0.00500
0.00001
0.02970
0.01143
0.00027
0.00005
-0.00008
0.00324
0.00015
-0.00016
-0.00864
-0.00740
-0.00175
-0.01743
-0.00118
0.00066
0.00011
0.00010
-0.00114
0.00285
0.00006
0.00074
-0.00178
-0.00005
-0.00034
-0.00004
0.00241
-0.00010
0.00022
0.00810
-0.00024
-0.00049
0.00000
-0.03857
-0.00035
0.00002
-0.00436
-0.00092
-0.00084
0.34044
0.00067
-0.05114
0.00356
0.00005
0.03612
-0.00005
-0.00066
-0.00071
-0.00574
0.00102
-0.00134
0.00350
-0.00041
0.00030
0.00041
-0.01968
0.00005
-0.00843
-0.00165
0.00015
0.00028
0.00044
-0.00017
0.00508
0.00679
-0.00105
0.00017
0.00086
-0.00255
-0.02187
-0.00415
-0.00004
-0.00001
0.05312
-0.01233
-0.00043
0.00082
0.00094
0.00011
-0.00017
0.00085
-0.00264
-0.01302
-0.00058
0.00108
-0.00003
-0.00065
0.00953
-0.07543
-0.00623
-0.00030
-0.00001
0.06735
-0.00055
-0.00106
-0.00008
0.00034
0.00025
-0.00834
-0.00295
-0.00002
-0.00025
-0.00011
-0.00167
-0.00018
0.00020
-0.00101
-0.00004
-0.00017
0.00006
0.00013
0.00038
-0.00120
0.00033
0.00007
-0.00004
0.00016
0.00172
0.00007
0.00107
0.06861
-0.00131
-0.00762
0.01101
0.00050
-0.00007
0.00011
-0.00493
0.00002
-0.00108
-0.00020
0.00021
0.05959
0.00005
-0.00695
-0.00125
0.07916
-0.00536
0.00002
0.00005
0.00003
0.00004
0.00001
0.00216
0.00058
-0.00189
-0.00021
-0.02678
-0.00011
0.00095
0.05299
0.00000
0.00008
0.00078
0.00002
0.03001
0.06537
0.00073
0.02612
0.00181
-0.05568
-0.00002
0.00040
0.00159
0.00014
-0.00004
0.00031
0.00034
0.00013
0.01949
0.00880
-0.00256
-0.04832
-0.00007
-0.00001
-0.00008
0.00393
0.00089
-0.00004
0.00003
-0.01051
-0.02606
-0.01132
-0.00019
0.00020
-0.00431
-0.00004
-0.00531
0.00069
0.00185
0.02380
-0.00013
-0.00015
0.00018
-0.00061
0.00051
0.00118
0.00006
-0.00304
-0.00005
-0.00516
0.00344
-0.00004
0.00044
0.00809
-0.00097
0.00010
0.00051
-0.00001
-0.00001
-0.00255
-0.00006
-0.00577
-0.00008
0.01711
-0.00046
0.00404
0.00014
-0.00024
-0.01662
0.00062
0.00053
-0.00000
-0.00002
0.01644
0.04025
-0.00000
-0.01594
0.00004
-0.00073
0.00196
-0.00004
-0.00012
0.00019
0.00227
-0.00002
0.00350
-0.00012
-0.00004
0.00071
-0.00004
-0.00045
-0.00035
-0.00243
-0.00061
-0.08981
-0.00158
0.00018
0.00092
0.01051
-0.00219
-0.00385
0.00015
0.00371
-0.01576
-0.02813
-0.01127
0.00004
-0.05869
0.00137
-0.00014
0.00134
-0.00369
-0.00520
-0.02327
0.00223
0.00066
-0.00035
-0.00477
-0.01434
0.00091
0.00055
0.00221
-0.01192
0.00018
-0.00089
0.00013
-0.00005
0.00020
0.00000
0.01488
-0.00036
-0.00012
-0.00003
0.00590
-0.00051
-0.00017
-0.01094
0.00107
-0.00160
-0.03513
-0.00021
-0.00049
-0.00010
-0.00022
0.00011
0.00202
0.00534
0.00401
-0.00299
0.00012
-0.00523
-0.00085
-0.00510
-0.00017
-0.00009
-0.00052
-0.00031
-0.00007
0.00632
-0.01174
-0.01186
-0.00039
0.00561
0.00011
0.00804
-0.00008
-0.00004
0.00025
-0.00702
-0.00010
0.00037
-0.00004
0.00005
0.00017
0.00003
-0.00072
0.00009
-0.00012
-0.00431
-0.00008
-0.00125
-0.00032
-0.00004
-0.05114
0.00051
0.00038
-0.00021
0.00051
0.00117
0.00017
0.00017
-0.03855
0.00307
0.00294
0.00034
0.00607
0.00085
0.00019
0.01228
0.04252
0.00013
0.00001
0.00014
0.00000
-0.02594
-0.00240
0.00035
-0.02201
-0.00003
-0.00026
0.00080
-0.00733
-0.00245
-0.00538
0.00318
-0.01144
-0.00042
-0.00013
-0.00026
-0.00047
-0.00024
-0.00163
-0.00096
0.00000
-0.00002
-0.00001
-0.00014
-0.00153
-0.01592
-0.00001
0.00061
0.05952
-0.00052
0.12311
0.00034
-0.00010
-0.00023
0.00041
-0.00141
-0.00090
-0.00219
-0.00013
-0.07152
-0.00011
0.00003
-0.00250
0.00139
-0.00013
0.11047
-0.00040
-0.00154
-0.00288
0.00002
0.00002
0.00011
-0.02544
0.03660
0.00036
0.00087
-0.00027
-0.00385
0.00116
0.00090
0.00072
-0.00201
0.00048
-0.01346
0.00002
0.00011
-0.00224
0.00008
-0.02680
-0.05605
0.00001
0.00032
-0.00009
0.01479
-0.01946
0.00046
-0.03357
0.00058
0.00698
-0.00001
-0.02415
-0.00772
-0.00231
-0.00004
0.00026
-0.00040
0.00004
-0.00014
-0.05347
0.00003
-0.00005
-0.00004
-0.01218
0.00018
-0.00013
-0.00026
0.00002
-0.00021
-0.00448
-0.00017
-0.00004
-0.00006
0.01390
-0.02809
0.00125
-0.00029
0.00108
-0.01513
0.01942
0.04255
-0.00046
0.03091
-0.00003
0.00194
-0.00920
-0.00060
0.02386
0.00001
-0.02529
-0.00033
-0.00021
-0.01231
-0.02672
0.00043
0.00001
-0.01921
-0.00030
-0.00026
0.00681
0.00007
0.00035
0.00159
-0.00040
-0.00000
0.00000
-0.00737
-0.00193
0.01482
0.00148
0.04518
0.00021
-0.00023
0.00007
-0.02663
0.01241
-0.00503
0.00017
0.00011
-0.00003
0.00232
-0.00321
-0.00605
-0.00151
-0.00412
0.00190
-0.00219
0.00048
-0.00000
-0.08172
-0.00875
0.00327
0.02428
0.00206
0.00021
-0.07899
-0.00045
0.00070
0.02495
-0.10147
-0.00000
0.00029
-0.00032
-0.00009
0.00001
0.02653
0.00095
-0.05896
0.00085
0.00319
0.00145
-0.01726
0.00044
-0.00001
0.00065
0.00202
0.00002
0.00039
-0.00006
-0.00030
0.00044
-0.00185
0.00191
-0.01970
-0.02104
0.00216
0.00004
-0.00004
-0.00182
-0.00006
0.02622
0.00010
-0.00030
0.04179
-0.00096
0.00074
-0.00028
-0.00000
-0.00040
-0.00004
0.00069
-0.01123
-0.00169
0.00093
0.00001
0.00079
0.00024
0.00104
0.00052
-0.00843
0.00090
-0.00279
0.00016
0.00017
0.00178
0.00040
0.01603
0.00006
0.00017
0.00010
-0.00004
0.00494
0.01011
0.00118
0.00022
-0.00284
-0.00317
0.00012
0.00062
0.00067
0.04831
0.00299
0.01385
-0.00005
0.00010
0.00166
0.00039
0.00005
0.00132
0.00012
-0.00005
-0.00512
0.02131
0.00071
0.00022
0.00015
-0.00022
-0.00144
0.00015
-0.02652
0.00001
0.00047
0.00001
-0.00488
0.05477
-0.00007
0.00003
0.00412
0.01086
-0.00014
0.02045
0.00014
-0.00006
-0.01070
-0.01004
0.00002
0.00046
0.00179
0.00069
-0.00009
-0.00102
-0.00497
0.00005
-0.00042
-0.01013
-0.00138
-0.00016
-0.00023
0.00267
-0.00113
0.00010
0.00129
0.00003
-0.00002
-0.00119
0.00131
-0.00000
0.00061
-0.00054
0.00561
0.00010
0.00008
-0.03224
0.00114
0.00067
0.00176
-0.03144
0.00010
0.00318
-0.00240
-0.00000
-0.00947
0.00200
-0.00008
-0.00484
0.00372
-0.00038
-0.00500
-0.00032
0.00016
-0.00001
0.00045
0.00001
0.00770
-0.00003
0.00020
0.00005
-0.00084
0.00016
0.00001
-0.00008
0.00012
-0.00030
0.00032
0.00004
-0.00035
-0.01176
-0.00014
0.00050
-0.00012
0.00043
0.05406
0.00032
0.00019
0.00035
0.00026
-0.00161
-0.00031
0.00065
0.00024
0.03688
-0.00008
0.00002
0.01416
0.00216
-0.00508
0.00049
0.00013
0.00006
-0.02190
0.00000
0.00027
-0.00003
0.00011
0.00081
-0.00430
0.08094
0.01419
-0.00162
-0.00014
-0.00006
0.00105
-0.00874
-0.00003
0.00044
-0.00026
-0.01066
0.00012
0.00000
-0.00502
-0.00157
0.00030
-0.00097
0.00049
0.00002
-0.00762
0.00020
0.00005
0.00347
-0.01529
0.00401
0.00011
0.00324
-0.00015
0.02287
-0.00533
0.00001
-0.00674
0.00011
-0.00026
0.00034
-0.00014
0.00011
0.00047
0.00019
0.00086
-0.00174
-0.00024
-0.00001
-0.00858
-0.00037
-0.00272
0.04176
0.03206
-0.00008
0.00011
-0.00188
-0.00947
0.00821
-0.00503
0.00222
0.00561
0.00003
0.00345
-0.00033
0.00493
-0.03071
0.00005
-0.00006
0.00107
-0.05386
-0.00215
-0.00173
-0.00003
-0.00350
0.00013
-0.00354
0.00002
-0.00018
0.01289
0.00018
0.00010
-0.00002
-0.03482
0.00054
0.00336
0.01104
0.00060
-0.00067
0.00007
0.00769
-0.00191
0.00405
0.00058
-0.00026
-0.00013
-0.05122
0.00083
0.00145
-0.00622
0.00208
-0.03979
-0.00028
-0.01390
-0.00016
-0.00459
0.00013
0.00012
-0.00020
0.00081
-0.00006
0.00007
-0.00011
-0.00046
0.00316
-0.00053
-0.00009
0.00376
0.00810
-0.09848
0.00005
-0.00025
-0.00005
0.02443
-0.00235
0.00307
0.00289
0.00027
0.00275
-0.00547
0.00007
0.00001
0.04726
0.04841
-0.00381
0.00028
-0.00019
0.01767
-0.00023
0.00013
0.00458
0.00046
-0.00003
-0.00662
0.00223
0.00016
0.00392
-0.00010
0.00477
0.00001
0.00052
0.01531
-0.00205
-0.00062
0.06510
-0.01084
-0.00013
0.00010
-0.00272
0.00032
-0.00018
-0.00005
-0.02269
-0.00033
-0.04590
0.00005
-0.06899
-0.00005
0.05063
-0.00073
0.00341
-0.00064
-0.02638
0.03308
0.01159
-0.00158
0.00442
-0.00374
0.06539
-0.00047
0.00085
0.00039
-0.00112
0.00017
-0.01070
0.00657
-0.02797
-0.00100
-0.00000
-0.12649
-0.00801
-0.00002
0.00009
-0.00006
0.00098
0.00011
-0.00009
0.00043
0.00004
0.00400
-0.00003
-0.00001
-0.00001
-0.00035
0.00003
0.00003
-0.00012
-0.00009
0.03466
-0.00004
0.08509
0.00230
0.02880
-0.00003
-0.00165
0.00022
-0.00005
-0.00022
-0.00231
0.00031
0.00007
0.00132
0.03115
0.06921
0.00711
0.00804
0.00512
0.00049
0.00040
0.00069
-0.02958
-0.01261
-0.00029
0.00179
-0.00002
0.08002
0.00023
-0.00009
0.00003
0.00029
0.00034
-0.03066
-0.00008
0.01067
-0.00143
0.00006
0.00058
-0.00349
0.00017
-0.00050
0.02546
-0.00123
-0.00035
-0.01001
-0.00038
-0.00153
0.07084
0.00006
-0.00016
0.00321
0.00502
0.00007
0.00378
-0.00001
-0.00042
-0.00035
-0.00029
-0.04309
-0.02327
0.01276
-0.01657
0.00011
0.00015
0.00528
-0.00124
0.00033
0.05354
0.00006
-0.00048
-0.00063
0.05994
-0.00008
-0.00015
0.00003
0.00019
-0.00198
-0.01781
0.00038
0.00063
-0.00004
0.00071
0.00018
-0.00001
0.01008
-0.01808
0.00099
0.00034
-0.00101
-0.00019
0.05343
0.00022
-0.00053
0.02037
0.00840
0.00160
0.00083
0.00004
-0.00023
-0.00166
0.00003
0.00236
0.03022
0.00057
-0.00297
0.00016
0.01402
-0.00013
-0.00009
0.00007
-0.01883
0.00001
0.00003
-0.00183
-0.04201
0.00001
-0.00033
0.00002
-0.00004
-0.00002
-0.00115
0.00046
0.00000
-0.00646
-0.00014
0.00305
0.00938
-0.00016
-0.00345
-0.00079
0.00027
-0.00011
0.01541
-0.00011
-0.00521
-0.02586
0.00002
0.00016
-0.00006
0.01600
-0.04232
-0.02448
0.00009
0.00140
-0.00027
-0.00004
0.02596
-0.00014
-0.00000
0.00077
0.00012
-0.00447
-0.00006
0.20723
-0.01119
0.00115
-0.00004
0.06387
0.00586
-0.00142
0.00152
-0.00003
0.00012
-0.00219
-0.00007
0.00216
-0.00186
0.00143
-0.00007
0.00009
0.01126
-0.00812
0.00172
0.00107
0.00016
-0.00677
-0.00008
0.00015
0.01126
-0.00185
0.00015
0.00008
-0.00002
0.00138
0.00006
0.00074
0.00005
-0.00012
-0.00000
-0.00001
-0.00001
-0.00282
0.00000
0.00015
0.00001
-0.00020
-0.00139
0.01696
0.00343
-0.00015
-0.00032
0.00003
0.03298
0.00099
-0.06385
-0.00003
-0.00008
0.09850
0.01573
-0.00020
-0.00395
-0.04254
0.00005
-0.01018
0.00053
-0.00050
-0.00018
-0.00086
-0.00113
-0.00192
-0.00689
-0.00094
0.00013
0.00001
0.00001
0.00004
-0.00002
-0.00036
-0.00002
-0.00000
-0.00070
0.01521
-0.00028
-0.00143
0.00042
-0.00037
0.00037
0.01102
0.00455
-0.00257
0.00003
0.06921
-0.00030
-0.00092
0.01029
-0.00008
-0.00569
-0.00001
0.00000
0.00027
0.00007
0.00090
-0.00476
0.00112
-0.00011
0.00250