# vtk DataFile Version 3.0
Point representing Sub_cellular elem model
ASCII

DATASET UNSTRUCTURED_GRID
POINTS 1336 float
2.28222 -22.98687 0.42640 
-20.92535 5.46050 -6.42717 
-10.90343 14.34062 -10.79369 
15.40261 23.42166 -3.33245 
12.86228 -6.15818 5.34035 
-11.16751 -11.55068 24.52407 
-12.54586 -21.85810 -6.89632 
-17.35869 -10.14660 -0.10590 
19.11165 -15.37824 6.03335 
-1.64734 10.98068 -16.23854 
11.45505 4.67980 4.26412 
-20.14628 -12.97517 -2.20780 
-9.18699 -8.64024 -5.39109 
13.27382 11.66843 19.68073 
-1.44431 -22.43727 4.16740 
-2.49706 -20.12891 -11.77999 
-4.82346 -2.39242 -27.04878 
1.59020 0.40480 24.38778 
25.25201 8.60187 2.14930 
-3.17857 -20.69592 16.69778 
13.01218 0.52988 5.09077 
-6.20718 5.95332 13.44724 
13.37633 0.65587 10.50509 
13.76487 3.23837 -21.39945 
-0.65348 10.65452 -11.62341 
9.69210 -2.54206 -21.65922 
15.14547 -19.94577 -0.33876 
-17.03424 11.61947 -19.15924 
-2.17881 -23.11269 3.63717 
17.99690 -1.80960 7.04498 
16.42283 -3.71192 -12.59979 
-13.92652 -10.45849 -20.25049 
3.33269 17.22427 6.86910 
-16.30895 21.39533 0.39741 
16.69358 7.46901 1.59648 
-0.09794 -7.42783 -9.89247 
-12.83654 -21.87829 1.47538 
21.17470 -1.48352 1.84095 
13.76854 5.08272 -19.73328 
-19.37269 -5.42111 -8.57752 
15.78280 6.67665 7.09540 
3.35377 -7.39680 -6.81173 
-8.92210 9.68080 8.48602 
6.83505 1.70104 -11.55176 
-23.70944 -1.82883 6.43304 
22.54555 -6.11995 12.14520 
-7.87389 19.57851 -2.03372 
5.88702 -3.89895 19.02151 
-26.65800 2.78575 -11.90742 
10.84793 21.29157 11.38631 
-1.92813 17.63968 -20.98339 
16.71956 9.52719 1.78676 
-8.13084 7.45269 -25.84488 
2.88435 3.08589 8.14525 
19.81471 -20.98456 0.38475 
26.85760 2.74579 3.49029 
13.55830 17.14985 3.65521 
-6.56416 -14.46675 3.35951 
-18.59456 -2.02632 1.32435 
-13.76556 -3.16846 -23.76207 
6.60410 -18.04818 -19.15635 
0.62572 -6.65261 -25.06127 
-9.52187 7.90393 10.08349 
-1.70131 -25.54253 3.32405 
9.62302 22.25266 -10.45270 
-3.54581 -3.12822 27.85758 
13.41320 15.17483 13.72094 
11.44973 23.23169 -7.41012 
4.11225 24.84366 8.75406 
25.76957 4.88967 4.57188 
14.36176 9.84686 10.89311 
11.89604 19.57654 -7.05104 
0.58194 -22.62907 -12.27013 
19.30203 6.46884 12.84273 
-22.56222 -15.12605 3.27877 
-18.84959 -1.31067 12.93410 
-18.42449 19.37648 4.29229 
-19.22039 -17.36856 -0.00092 
3.05258 12.34016 13.45282 
7.73006 14.63939 -20.49492 
8.71479 0.49503 -24.47167 
-8.47803 -8.62286 -2.49845 
17.65284 -8.97384 6.16969 
3.40810 -24.80439 7.42470 
16.65638 -6.64828 -17.09906 
-4.65846 -20.03690 11.16534 
13.81327 4.35932 -17.96531 
5.81200 19.35101 15.71255 
12.81597 20.19809 -6.65384 
-2.71877 7.57842 -11.92815 
-14.97851 3.23340 -12.54825 
-16.06777 16.50310 -17.62577 
-7.56907 -2.16301 7.41932 
14.75770 16.40222 -15.61555 
-12.34820 9.19046 -20.20383 
-0.99350 -22.50763 -5.61563 
5.63991 -11.12531 -24.14519 
17.14152 23.84528 1.52429 
3.10240 3.25353 -6.39256 
-27.17388 1.89515 0.64005 
-25.82699 -3.14987 -4.12386 
8.63397 -21.22568 5.84924 
20.28298 8.58385 10.93358 
-6.61749 21.65208 -11.59556 
1.63095 -19.01616 -10.14350 
7.16128 2.12443 25.11432 
-0.57616 -9.60842 -24.18764 
-15.90143 -12.05472 15.87679 
-5.55669 23.11464 9.93512 
-7.46150 1.55750 -6.97458 
2.18477 -7.03970 -9.21047 
8.80935 -3.20185 24.99133 
11.41542 -17.41293 -20.63776 
-11.76478 -8.10468 16.76053 
5.61443 7.41966 -21.51776 
11.55533 -24.23384 1.37871 
-2.31862 24.69380 11.64360 
16.95453 -7.33131 10.76413 
-11.72853 -15.57539 9.34807 
20.60975 5.23184 12.11684 
15.00833 -11.98418 -7.67461 
-12.55311 24.68972 3.74156 
24.93426 -4.48276 -11.45226 
7.91253 12.16454 2.62761 
13.09013 7.18469 24.32946 
-20.05307 -3.37656 -5.83763 
25.56496 -8.63337 -9.45176 
2.82867 -6.10249 -11.06108 
-15.31334 -18.09690 5.16972 
-8.75461 16.91388 -2.70388 
-5.24221 -8.23373 26.46741 
-1.67862 -2.48942 -24.22815 
24.25267 13.96972 -6.44501 
-26.08820 -8.53914 5.49387 
-23.11743 -2.33779 -15.07318 
4.86556 18.67192 15.90638 
15.72893 11.13935 -5.80423 
-5.42746 -0.81980 -26.03645 
-15.02621 13.89665 -15.34045 
23.73218 -13.65297 1.36892 
6.12839 5.10027 -7.33991 
-0.32840 10.35991 2.32982 
10.66231 8.78663 -19.95535 
11.86916 -4.24993 -12.64207 
16.42031 -16.48923 -9.62724 
-1.38413 18.98375 -21.47703 
-13.22330 16.56082 12.42987 
17.99184 -14.91112 16.22411 
6.62783 20.65802 -18.71297 
-12.32493 -21.87044 -2.01821 
0.58475 -10.01312 -24.29337 
-9.42297 17.65678 6.08389 
-6.92982 24.29569 -5.44809 
4.27696 -5.37738 -15.15379 
16.83626 -3.82155 -7.02208 
-11.67234 3.81989 9.53727 
15.24001 4.69847 3.46186 
-2.81145 22.91368 -6.82573 
-10.99509 11.63524 6.19396 
-2.91191 -10.29010 15.74414 
-4.71735 18.16933 -17.10111 
0.34528 0.40075 26.07252 
-11.46835 12.49997 -18.67410 
-0.61695 -22.48991 -19.32798 
-3.74438 25.11791 9.77053 
6.85647 15.43626 -21.65111 
3.96064 -16.82713 -10.00243 
-7.23481 8.90005 -4.66315 
8.61696 11.68818 21.35045 
4.66762 -6.59319 12.17465 
14.15893 9.67168 -15.43094 
-2.55298 -16.25319 12.51968 
-18.54868 -7.16664 -19.70018 
-15.76413 -14.39074 -18.82713 
19.43758 21.37138 -7.24438 
10.30642 -9.04040 -9.41888 
15.55200 -14.22076 -19.05500 
13.09272 -0.75841 12.85263 
-4.33089 -13.14961 8.69622 
-5.76466 26.55645 -8.92423 
4.85278 2.66057 -11.59939 
-18.73006 4.43191 18.60659 
-23.23096 -2.07572 5.63571 
-15.06795 16.21283 9.68912 
-19.34220 11.76911 13.76206 
23.59742 -10.56633 -0.12195 
-12.59812 5.34130 15.95593 
-23.39725 -15.24590 1.95368 
-5.12111 8.28156 -7.58885 
-24.78392 5.89185 -7.31038 
5.62348 4.87959 28.88524 
-1.16431 -22.06169 -6.57598 
-12.29834 -12.41427 -14.08015 
13.82776 -0.35513 -2.93135 
-4.50994 16.60290 -3.83259 
-9.91700 2.78551 21.92778 
-14.14197 -10.52430 10.46616 
12.56499 5.90053 26.58123 
21.17186 -7.32362 2.67547 
11.63632 7.20073 11.48587 
-16.54932 -15.24190 2.08096 
-21.86481 -11.91125 10.06358 
3.73692 -0.41885 14.09641 
2.98638 7.01345 -21.48512 
-3.11522 -6.12274 7.97067 
18.35931 -8.72033 -17.16004 
-0.96422 11.45737 16.52138 
-2.63551 -15.12646 16.53782 
4.62652 -28.28006 5.15372 
-3.00442 -3.45611 -20.47070 
-14.57489 3.83039 24.33888 
-16.57103 -18.91899 -1.16318 
5.47521 9.66656 25.69438 
-3.83637 -22.44370 16.63053 
3.44851 -10.59894 -13.59537 
-15.59954 -0.11870 10.99337 
7.74030 -1.16397 19.59396 
-1.71373 14.04034 2.10103 
5.93262 4.31803 5.21064 
17.14406 12.78862 -10.07124 
4.26494 -9.07700 3.76033 
-0.49581 21.80424 1.76636 
4.34428 -1.63796 -18.53256 
4.36375 -28.73869 -6.01895 
17.32272 -11.91190 -15.22637 
5.48817 -7.41599 22.02260 
8.90308 -8.76604 -15.25288 
19.07439 -2.90402 8.40054 
-2.73861 -13.54802 -6.28184 
-20.11656 5.18353 5.12215 
-18.59400 -5.39890 -20.67246 
-16.73521 5.75813 2.16362 
17.88035 -4.55490 -12.92668 
-9.25647 26.37093 6.74850 
-25.80452 -3.29312 9.42110 
4.40537 -23.94095 8.89066 
-5.33072 16.41441 16.71176 
21.55474 0.25244 -2.82691 
-22.87099 4.33609 -2.64261 
25.39298 -13.69077 -0.06666 
21.38164 1.97162 3.24475 
-7.59342 -25.73233 5.76949 
-0.41118 -8.59859 -18.96532 
-9.68914 -24.23154 2.42791 
-9.90042 -0.95734 21.97849 
-6.70980 5.45530 -23.33310 
20.41411 4.61120 -11.86085 
8.42526 -8.76262 21.88607 
-16.76896 -8.44642 -19.21930 
-17.48849 -7.09073 -14.47490 
-16.10695 -6.99382 -10.07728 
-21.75399 -5.03841 -7.91032 
12.71020 -5.99186 15.35748 
-5.69177 -5.22608 -27.75634 
26.57678 6.95049 11.90969 
-13.80394 4.32853 4.27967 
-3.22344 -13.98626 -4.60849 
14.55328 -6.41464 -9.16177 
-16.61587 4.63594 23.15958 
-1.41228 -19.56040 -7.53767 
23.01536 -12.31200 -10.34590 
-26.76363 -5.39028 -9.07275 
-8.70852 15.43223 2.34898 
-0.33798 -29.86331 0.26605 
3.02475 -2.83796 -13.89285 
15.28882 6.67844 -12.23292 
3.46175 -11.73110 -3.25085 
-6.89561 10.20868 -22.79093 
-14.97275 11.93726 -4.98355 
-7.56407 -22.42928 0.91892 
-2.95518 16.92635 -1.61684 
-4.08138 12.69739 -24.04640 
25.58015 10.75522 4.40147 
4.38778 -14.76563 9.25215 
-14.78896 -6.70931 -20.41322 
22.75719 6.05896 -10.23415 
-3.62871 21.85117 2.24063 
2.40008 2.75484 -10.83453 
5.96853 -10.23376 25.42753 
4.35443 -3.86175 -14.89660 
0.94134 19.35696 14.86377 
2.03027 3.69799 3.76441 
7.55978 2.64473 -16.43061 
-3.35850 -12.49681 -5.83377 
9.62748 20.81149 -2.47703 
-5.05469 2.65648 23.01839 
-25.54374 -13.22807 -0.51534 
-14.55664 0.16185 -10.07344 
22.54723 -10.98778 5.89887 
22.43102 17.94197 0.72235 
-4.71975 -17.34859 16.93462 
7.70209 -12.80683 -12.21533 
-12.96817 12.45393 4.29085 
-13.70018 5.12767 4.26655 
12.30559 19.25166 6.00500 
-23.88935 -13.06065 -3.33650 
15.17731 17.59331 12.22801 
1.69548 -14.38816 15.39177 
-12.03676 -10.31431 16.93974 
-6.35861 -3.02532 -13.22399 
20.30303 -1.56663 3.03058 
3.37910 -12.29376 16.42901 
15.05193 -16.64603 -6.12236 
-0.18958 13.88514 19.47784 
0.31680 8.94589 -14.38233 
-5.42902 6.48415 22.25291 
20.24905 2.41651 20.29399 
0.50276 -4.36583 28.42650 
10.34911 -9.20719 -3.31221 
9.29456 -6.87130 9.15948 
8.95598 1.32997 -0.00610 
7.27634 2.80702 2.54134 
-1.41842 -7.72668 -22.51461 
25.89293 -13.97291 -5.36118 
-16.15097 -12.38945 -6.43587 
-0.42611 -16.45069 -7.88319 
-5.80005 -8.71791 10.70072 
17.46924 11.37895 15.88903 
-0.25618 -4.34110 -15.08984 
0.06404 -23.04483 -10.35104 
26.38326 9.05483 4.19420 
-5.65795 18.85899 13.82209 
-4.24427 12.59307 -5.78767 
23.64243 9.60853 13.25131 
-21.02460 3.42924 19.47993 
20.28089 0.82784 21.97474 
-8.68898 -8.65973 27.30387 
23.83893 2.15913 -13.03808 
-5.77215 -6.88165 24.94190 
-3.70328 10.17139 2.76364 
-7.70866 9.86626 -24.62929 
-19.65595 -20.20829 2.82535 
-6.76468 -0.51745 -23.86388 
-2.14202 -2.92663 -6.27471 
25.33519 6.47032 6.28114 
-18.37168 -10.17323 16.94410 
15.25834 18.08984 -1.85249 
-16.83488 -0.48122 -13.94935 
11.27535 10.45305 -4.29537 
-6.73885 24.86944 10.91022 
14.55480 15.86357 7.29693 
-17.92321 -7.47034 -9.97510 
19.73310 -10.64623 -12.17840 
18.76825 -2.20543 11.20736 
-0.83391 13.54046 23.80785 
-4.48332 -18.78931 15.79786 
4.59135 5.94670 17.32305 
-8.57211 3.14044 -17.17970 
-19.95314 20.54036 -5.17169 
0.03476 19.62894 -3.61766 
10.65536 7.77291 -15.41372 
-1.06923 8.69992 21.75057 
[...]
CELL_DATA 2734
SCALARS Fiber_Strain double 
LOOKUP_TABLE default 
-0.00010
-0.00067
-0.00013
0.00006
0.00192
-0.00056
0.00012
-0.00007
0.00013
-0.00582
-0.00028
-0.00846
0.00006
-0.00001
-0.00045
-0.00009
-0.00004
0.00076
-0.00004
-0.00001
-0.00098
0.00001
0.00001
0.00002
-0.00057
0.00065
0.00000
0.00107
-0.00007
0.00012
-0.00028
-0.00601
0.00017
-0.00008
0.00008
0.00726
0.00020
0.00220
0.00040
0.00094
-0.00854
-0.00029
0.00002
-0.00015
0.00008
-0.00032
0.00450
-0.00008
0.00858
0.00004
0.00013
0.00009
0.00012
0.00002
-0.00006
-0.00003
0.03367
0.00006
0.00012
-0.00072
0.00615
0.02199
-0.00019
-0.00143
0.00110
0.00120
0.00030
0.00093
-0.00133
-0.00189
0.01031
0.00056
-0.00030
-0.00028
-0.01136
-0.01962
0.00048
-0.00049
-0.00007
-0.19181
-0.00117
0.00007
0.00006
-0.02557
-0.00929
0.00016
-0.02636
-0.00294
-0.00392
0.00006
0.00209
0.03587
-0.00187
0.00303
-0.01096
-0.00274
0.00016
-0.00355
-0.00057
0.00247
-0.03196
0.00012
-0.00001
-0.01822
-0.10600
0.00029
0.00004
-0.07851
-0.01383
0.00017
-0.01730
-0.00061
-0.00073
0.00008
-0.00960
-0.00012
-0.00045
-0.02576
0.02322
0.00006
0.00004
0.00715
0.03371
-0.05020
0.00030
-0.00010
-0.01788
0.04457
-0.00270
-0.00102
-0.05555
-0.00001
0.00018
0.01240
-0.00289
0.00023
-0.00023
0.00011
0.00012
-0.00071
0.00103
0.00018
-0.00113
0.00067
-0.00037
-0.00065
-0.00003
0.00202
0.00013
0.00007
-0.00834
-0.02819
0.00010
0.00009
0.04835
0.00000
-0.00029
-0.04846
-0.00352
-0.00051
0.00300
0.00014
-0.00181
-0.00020
-0.10393
-0.00141
0.00029
-0.00026
0.00300
-0.00360
-0.06984
0.00204
-0.04618
-0.00573
-0.00009
0.00010
0.00167
0.00589
-0.00071
-0.00040
0.00007
-0.00307
-0.01249
-0.02873
-0.04146
-0.00006
-0.00049
-0.00020
-0.00894
-0.00109
-0.00009
-0.00015
-0.00107
-0.00084
0.00012
0.00074
-0.00627
-0.00290
-0.00034
0.00212
0.00632
0.09170
0.00034
-0.13993
0.00013
-0.00313
0.01171
0.00330
-0.02767
0.01911
-0.11328
0.05456
-0.00366
0.00464
-0.01857
-0.00056
-0.00076
0.00213
0.00023
-0.03303
0.00165
-0.00311
-0.00110
-0.04796
-0.06913
-0.01011
-0.00119
-0.00022
0.00180
0.00026
0.00135
0.00072
0.01370
-0.00302
-0.00005
0.00288
-0.00003
0.00078
-0.00284
0.00743
0.02132
-0.00004
0.00074
0.00792
-0.00057
-0.00088
0.00010
0.00003
-0.00002
0.00039
-0.00028
-0.00063
-0.00006
0.04280
0.01721
-0.00358
-0.00001
0.00657
-0.00020
0.00020
-0.00047
0.00899
-0.00001
-0.00667
0.00100
0.16601
-0.08513
0.00091
-0.00259
0.01977
0.00005
-0.00103
-0.00005
0.00019
-0.00301
0.00130
0.00002
-0.00003
-0.00005
0.00066
0.00161
-0.00006
-0.00235
0.00924
0.00269
-0.00442
0.00034
-0.01894
-0.00031
-0.00806
-0.00031
-0.00026
-0.01691
-0.00028
0.00187
-0.00003
0.00019
-0.01204
0.00008
-0.00005
-0.00325
0.07509
0.11143
0.00043
-0.03807
-0.00571
-0.00083
-0.00005
0.00027
-0.01018
-0.00027
-0.00048
0.00005
-0.00213
-0.00445
0.00015
0.00338
0.00164
-0.00001
0.00980
0.00198
0.00002
0.00090
0.00001
-0.00233
0.00023
0.12162
0.00003
0.00037
0.00031
-0.00434
-0.00043
0.00025
0.00976
-0.00077
0.00001
-0.00164
-0.00558
-0.07176
-0.00313
0.00006
-0.04100
-0.02011
0.01233
-0.00519
-0.00037
-0.00015
-0.07398
-0.09092
-0.00863
0.00031
-0.00095
-0.00020
0.00035
-0.01860
0.00339
-0.00005
-0.00284
-0.00004
-0.00334
-0.02073
-0.00000
0.00003
0.00012
-0.00681
-0.04377
0.00053
0.00041
-0.00037
-0.00006
-0.00008
-0.07884
-0.00160
-0.00040
-0.00715
0.00002
0.00717
0.00026
-0.00001
-0.00409
0.05664
-0.04181
-0.00021
-0.00005
-0.02610
0.00026
0.00691
0.01303
-0.00615
0.00002
0.00008
0.00560
0.00018
-0.01488
-0.00011
0.00007
-0.00996
0.00142
-0.00007
0.00299
0.00152
-0.00036
-0.00642
0.02403
-0.11168
-0.12746
0.07725
0.00026
-0.00009
0.00576
-0.01366
-0.00669
-0.01036
0.00233
-0.00791
0.00036
-0.01319
0.00007
0.00014
-0.01725
-0.00584
0.01172
-0.00005
0.04628
-0.00173
0.00086
-0.13081
0.04756
0.03142
-0.00173
0.02148
0.00007
0.00006
0.00013
0.00013
0.00009
0.04334
-0.00277
-0.00024
-0.01027
-0.00070
0.03329
-0.01322
-0.00012
-0.00019
-0.00445
-0.00179
-0.00035
0.00063
-0.00065
-0.02823
-0.00931
0.00009
-0.00340
-0.01442
0.00567
0.01633
0.00001
-0.00001
-0.00184
-0.00024
-0.00003
-0.00038
-0.00006
0.03421
-0.00525
0.00016
-0.00159
0.00002
0.00043
0.00021
0.00015
0.00094
-0.01434
-0.00003
0.05788
-0.00417
-0.00019
-0.01276
0.00195
-0.00147
-0.00033
-0.00654
0.00011
0.00012
-0.00004
0.00000
0.00008
-0.00535
0.00822
-0.01122
-0.01571
-0.00144
-0.00153
0.02775
0.00002
-0.00001
-0.00151
0.00003
0.01122
-0.00008
0.00002
0.00004
0.00034
0.02138
-0.01238
-0.00000
-0.00913
0.02208
0.01765
-0.02241
-0.00851
0.00006
-0.00021
0.00048
-0.00221
-0.00022
-0.00000
0.00103
-0.05002
0.00527
-0.09737
-0.00035
0.00004
0.00612
-0.06066
-0.00073
0.02237
-0.00098
0.00121
-0.00019
0.00434
0.00000
-0.00089
0.00001
-0.00705
-0.00126
-0.02091
-0.00022
0.01162
-0.00291
0.00150
0.02086
-0.00029
0.00896
-0.00185
-0.00155
0.03867
0.00868
0.00057
0.00069
-0.00030
-0.05531
-0.00133
0.00533
-0.01714
0.00751
-0.01239
0.00011
0.00161
-0.00002
-0.00087
0.03244
-0.00018
0.00023
0.00026
0.00004
0.00008
0.00039
-0.00105
-0.00035
-0.06645
0.00111
0.00128
0.05582
-0.00749
0.00434
0.06053
0.00002
0.02151
0.01510
-0.01501
0.00033
-0.00097
-0.01191
0.12035
-0.00171
0.00199
-0.00001
-0.00065
-0.06710
-0.00114
0.00052
-0.00026
0.00248
0.00116
0.00001
-0.00004
0.00206
0.02153
-0.00245
0.00539
-0.00013
-0.00667
-0.00040
0.00463
0.00608
0.00647
-0.02399
0.00036
0.00789
0.00487
-0.00019
-0.06370
0.00001
0.00019
0.00006
-0.00019
-0.00023
0.00010
0.00001
0.00002
0.00008
0.01553
-0.00026
0.04567
-0.00804
-0.00081
0.00500
0.00834
0.00014
-0.00101
0.02704
0.00014
0.00711
-0.00024
0.00277
0.00314
-0.00049
0.01380
-0.00064
0.00213
-0.00004
-0.00021
0.01143
-0.01335
-0.00014
-0.02246
0.04295
0.00014
-0.04052
-0.00001
-0.00009
-0.12537
0.00001
0.00331
-0.00114
0.00041
-0.04123
-0.00190
0.00014
0.00356
0.00026
-0.01354
-0.00731
0.02436
-0.00001
0.07887
-0.00116
-0.00027
0.00000
0.00099
0.01783
0.02456
-0.00002
0.00085
0.01952
0.00362
-0.00026
0.01080
-0.00045
0.00055
-0.00577
-0.00032
0.00056
0.10409
-0.00047
0.00004
-0.00009
-0.00019
-0.00005
-0.00626
-0.00263
-0.01536
-0.00006
0.00026
-0.00003
-0.00073
-0.00007
-0.00018
0.00133
-0.00804
0.00015
-0.00452
-0.00580
0.00000
-0.00017
-0.01234
-0.00002
0.00005
0.00306
0.00008
0.00906
0.00118
0.00531
0.00006
0.05237
-0.00326
-0.00053
-0.00014
-0.00082
-0.03012
0.01712
0.05711
0.00435
0.05814
0.00020
0.00805
0.00413
-0.02340
0.00004
0.00070
-0.01333
0.00007
-0.01673
0.00004
-0.00019
-0.00519
-0.00064
0.00039
0.00020
-0.00178
0.00162
-0.00188
-0.00058
-0.00013
-0.01901
-0.00005
-0.02623
-0.00004
0.00234
-0.01943
0.01197
-0.00105
0.00002
0.00476
-0.00004
0.00336
0.00110
0.00001
-0.00907
0.00020
0.01210
-0.00059
0.01574
0.01045
0.00002
-0.00052
0.00018
0.00561
0.00010
0.00817
0.00266
0.00465
-0.00002
0.00007
-0.00011
0.00015
0.00767
0.00076
0.00180
0.01235
-0.00070
-0.01057
0.00603
-0.00023
0.00205
-0.00039
-0.00016
-0.02288
0.02444
-0.00043
0.04042
0.00023
-0.00092
0.00074
-0.04182
-0.00585
0.02531
-0.00726
-0.00006
-0.00010
-0.00545
0.00008
0.00467
-0.00010
0.00189
0.00007
-0.00100
-0.00245
-0.00001
0.00037
-0.00095
0.00038
-0.00113
-0.00001
-0.00686
-0.00059
0.00000
-0.00041
-0.00087
-0.00151
0.00012
-0.00095
-0.00008
0.00031
-0.01385
-0.00007
-0.03249
0.00060
0.00272
-0.00013
0.00048
-0.00236
-0.00050
-0.00068
-0.00003
0.00005
-0.00002
-0.00052
0.00105
-0.00016
-0.00005
0.00021
-0.00000
0.06645
0.00050
0.00000
0.00006
-0.00077
-0.02105
0.00285
-0.01468
-0.00008
0.00015
-0.03774
0.00005
0.01385
0.00003
-0.00018
0.02598
-0.00001
0.00202
-0.00066
-0.06402
0.00005
0.00152
0.01290
0.00426
-0.00003
-0.00731
-0.00522
-0.00524
-0.01102
0.00076
0.00304
0.00032
0.01438
-0.00094
0.00091
0.00006
-0.00230
-0.00012
0.00288
0.00108
-0.00016
0.00000
0.00139
0.00598
0.00025
-0.00002
-0.02504
0.00039
-0.02465
0.00032
-0.00009
0.00021
-0.00018
0.00009
-0.00018
-0.00083
-0.00258
-0.02824
0.00207
-0.00334
-0.00031
0.00199
0.00016
0.00002
-0.00554
0.02560
0.09945
-0.00016
-0.04104
0.00013
-0.00401
-0.00020
0.00015
-0.00002
0.00015
-0.00075
-0.00009
0.00004
0.00509
0.00164
-0.01724
0.00083
0.00018
0.01476
0.00002
0.00042
-0.07384
-0.00231
-0.01582
0.00248
-0.00109
-0.00198
-0.00171
-0.01340
-0.00033
0.00047
0.00004
0.00024
0.00550
0.05439
0.00129
0.00067
0.00888
0.00000
0.00340
0.00029
0.00097
0.00020
0.00019
-0.01153
0.00009
-0.00076
0.00211
-0.00006
0.00006
0.00007
-0.00282
-0.02843
0.00289
-0.00021
-0.00995
-0.00010
-0.00376
-0.00354
-0.00133
-0.00026
-0.00026
0.00002
0.00232
0.00055
0.00022
0.00023
0.00008
0.02881
-0.00073
0.00367
0.01044
0.00001
0.04787
-0.07883
-0.00138
0.01633
-0.00087
-0.00165
0.00031
0.00014
0.00004
0.00002
-0.01010
-0.00509
-0.00046
0.00011
0.00028
-0.00199
-0.00745
0.00901
0.00009
0.00130
0.00013
-0.00690
-0.00058
0.00592
0.00179
0.00169
-0.00109
-0.00254
0.00198
-0.00003
-0.00083
-0.03020
0.00276
-0.00000
-0.00007
-0.00003
0.00001
0.00010
0.00045
-0.06697
0.00081
-0.00143
-0.00052
0.00193
-0.00029
-0.00008
-0.01553
-0.00953
-0.00375
-0.00019
-0.00175
-0.00477
0.00098
-0.00448
0.00058
-0.00002
0.00003
-0.00452
-0.00612
0.00475
-0.00001
0.00172
0.00028
0.00692
-0.00002
0.00016
0.04223
-0.04248
-0.00009
0.00154
0.00123
-0.00155
-0.00149
-0.00910
0.04945
0.00290
0.00058
-0.01355
0.00025
-0.00007
0.00116
-0.00841
-0.00020
0.06016
0.00147
-0.00821
0.00236
-0.00001
-0.00003
-0.00083
-0.00021
0.00201
0.00009
0.00016
-0.00037
0.00052
0.00021
0.00019
-0.06992
0.00705
0.00030
0.00044
0.00032
-0.00021
0.00116
-0.00041
0.00053
0.00020
-0.00143
0.00046
0.00015
0.00057
0.00019
-0.00058
0.04333
0.00002
0.00000
-0.00028
0.00001
-0.00156
-0.00016
0.00009
0.00004
0.00650
-0.00077
0.00297
-0.00197
-0.00542
-0.00018
0.03900
-0.00147
0.00002
-0.00172
0.03692
-0.00211
-0.00001
-0.00019
0.00143
0.00003
0.00563
0.08230
0.00018
0.00087
-0.00400
-0.00085
-0.00001
0.00017
-0.00006
0.00091
0.00694
-0.02549
-0.00908
-0.00371
-0.00042
-0.08736
-0.00493
-0.08614
-0.00032
0.00000
-0.00001
-0.00021
-0.00225
-0.00139
0.00455
0.00000
-0.00000
-0.04183
0.04073
-0.00057
-0.00015
0.00337
0.00134
0.02186
-0.00331
0.00120
-0.00001
-0.00255
-0.00054
-0.01858
0.00080
0.00455
-0.00001
0.02343
0.00995
0.00007
0.00021
0.00003
0.00481
0.00030
-0.00025
-0.00837
-0.00574
-0.00241
-0.01807
-0.00168
0.00052
0.00054
0.00005
-0.00132
0.00302
0.00008
0.00083
-0.00221
0.00003
-0.00044
-0.00002
0.00357
-0.00025
0.00045
0.00890
-0.00033
0.00006
0.00033
-0.03767
-0.00089
0.00006
-0.00386
-0.00084
-0.00078
0.36494
0.00085
-0.05417
0.00624
-0.00011
0.02954
0.00002
-0.00135
-0.00100
-0.00877
0.00097
-0.00197
0.00328
-0.00076
-0.00002
0.00152
-0.01991
0.00008
-0.01045
-0.00164
0.00014
-0.00020
0.00066
-0.00042
0.00665
0.01055
-0.00128
0.00040
0.00171
-0.00326
-0.02311
-0.00525
-0.00005
-0.00001
0.04024
-0.01158
-0.00067
0.00478
0.00155
0.00019
-0.00009
0.00120
0.00118
-0.03001
-0.00074
0.00290
-0.00028
-0.00099
0.01158
-0.06656
-0.00262
-0.00059
-0.00003
0.04930
-0.00515
-0.00170
0.00030
0.00034
0.00033
-0.00929
0.02774
0.00001
-0.00019
-0.00037
-0.00258
-0.00046
0.00054
-0.00144
-0.00003
-0.00010
0.00012
0.00017
0.00013
-0.00188
0.00070
0.00014
-0.00005
0.00008
0.00350
-0.00002
0.00124
0.04244
-0.00170
-0.00792
0.01619
0.00049
-0.00007
0.00007
-0.00704
-0.00014
-0.00193
-0.00019
0.00015
0.05502
-0.00005
-0.00601
0.00001
0.05503
-0.00212
-0.00014
0.00025
-0.00006
0.00021
-0.00000
0.00359
0.00123
-0.00438
-0.00095
-0.02237
0.00007
0.00121
0.04485
-0.00019
-0.00009
0.00150
0.00001
0.02552
0.05578
0.00100
0.03034
0.00209
-0.04524
-0.00002
0.00117
0.00232
0.00028
0.00000
0.00038
0.00050
0.00024
0.01817
0.01104
-0.00300
-0.03571
-0.00003
-0.00001
0.00040
0.00582
0.00182
0.00012
0.00009
-0.00866
-0.01995
-0.01149
-0.00019
0.00062
-0.00605
-0.00003
-0.00523
-0.00100
0.00281
-0.01977
-0.00021
-0.00012
0.00021
-0.00078
0.00117
0.00104
-0.00001
-0.00399
-0.00003
-0.00460
0.00615
-0.00010
0.00063
0.01006
-0.00226
0.00039
0.00067
-0.00006
0.00007
-0.00301
-0.00020
-0.00955
-0.00011
-0.02383
-0.00113
0.00383
0.00020
-0.00051
-0.01589
0.00063
0.00076
-0.00001
-0.00005
0.01580
0.02891
-0.00001
-0.01800
0.00008
-0.00019
0.00352
-0.00006
-0.00016
0.00028
0.01025
-0.00004
0.00532
-0.00018
-0.00005
0.00030
-0.00036
-0.00057
-0.00051
-0.00214
-0.00050
-0.07827
-0.00148
0.00044
0.00100
0.00964
-0.00251
-0.00629
0.00024
0.00320
-0.01421
-0.02448
-0.01117
0.00014
-0.08374
0.00186
-0.00014
0.00065
-0.00658
-0.00591
-0.02222
0.00296
0.00092
0.00006
-0.00717
-0.02227
0.00135
0.00111
0.00193
-0.01640
0.00037
-0.00067
0.00038
-0.00004
0.00054
0.00004
0.02160
-0.00051
-0.00012
-0.00034
0.00858
-0.00107
-0.00007
-0.01429
0.00171
-0.00154
-0.03490
-0.00029
-0.00027
-0.00024
-0.00044
0.00035
0.00203
-0.00005
0.00498
-0.00156
0.00025
-0.00883
-0.00122
-0.00799
0.00006
-0.00018
-0.00189
-0.00036
0.00005
0.00683
-0.01493
-0.00873
-0.00040
-0.00211
-0.00008
0.01295
0.00010
-0.00010
0.00005
-0.01193
-0.00006
0.00082
-0.00013
0.00006
0.00016
-0.00005
-0.00094
0.00014
-0.00004
-0.00541
-0.00009
-0.00173
-0.00075
0.00006
-0.03680
0.00069
0.00018
-0.00028
0.00057
0.00171
0.00038
0.00009
-0.03710
0.00483
0.00403
0.00050
0.00935
0.00125
0.00034
0.02926
0.05721
0.00012
0.00005
0.00105
-0.00005
-0.02658
-0.00168
0.00095
-0.01880
-0.00039
-0.00071
0.00110
-0.01055
-0.00367
-0.00675
0.00580
-0.01487
-0.00042
-0.00009
-0.00021
-0.00028
-0.00047
-0.00153
-0.00130
0.00004
-0.00002
-0.00001
0.00001
-0.00224
-0.01483
-0.00003
0.00160
0.03676
-0.00053
0.05592
0.00040
-0.00014
-0.00004
0.00071
-0.00149
-0.00140
-0.00333
-0.00009
-0.06651
-0.00017
0.00017
-0.00373
0.00297
-0.00005
0.14911
-0.00053
-0.00212
-0.00692
0.00013
-0.00002
-0.00007
-0.01928
0.03009
0.00072
0.00133
-0.00024
-0.00357
0.00194
0.00142
0.00077
-0.00266
0.00077
-0.01719
0.00001
0.00009
-0.00302
0.00012
-0.06214
-0.05359
0.00001
0.00050
-0.00025
0.01300
-0.01865
0.00063
-0.04831
0.00094
0.00677
-0.00002
-0.01820
-0.00660
-0.00074
-0.00008
0.00036
-0.00054
0.00008
-0.00027
-0.05149
0.00004
-0.00002
-0.00028
-0.01214
0.00020
-0.00024
-0.00037
-0.00019
-0.00026
-0.00039
-0.00016
0.00011
-0.00011
0.01087
-0.02406
-0.00015
-0.00040
0.00182
-0.03035
0.01701
0.03743
-0.00055
0.03000
-0.00039
0.00255
-0.01081
-0.00094
0.02188
0.00001
-0.05795
-0.00026
-0.00049
-0.01575
-0.06541
0.00028
-0.00005
-0.01599
-0.00044
-0.00019
0.00928
-0.00067
0.00043
0.00258
-0.00039
0.00001
0.00008
-0.01157
-0.00068
0.01280
0.00180
0.04371
0.00041
-0.00035
0.00015
-0.02541
0.01352
-0.00672
0.00034
0.00094
-0.00034
0.00309
-0.00476
-0.00780
-0.00196
-0.00578
0.00252
-0.00264
0.00055
-0.00026
-0.09679
-0.01121
0.00405
0.01654
0.00172
0.00015
-0.06063
-0.00056
0.00140
0.02194
-0.08331
0.00001
0.00056
-0.00051
0.00000
0.00002
0.01599
0.00174
-0.05445
0.00126
0.00524
0.00939
-0.01707
0.00057
-0.00000
0.00115
0.00089
0.00002
0.00021
-0.00014
-0.00059
0.00087
-0.00202
0.00178
-0.01929
-0.01796
0.00327
0.00004
0.00044
-0.00254
-0.00004
0.02371
-0.00020
-0.00014
0.03112
-0.00149
0.00166
-0.00027
-0.00001
-0.00026
-0.00016
0.00148
-0.00661
-0.00263
0.00239
-0.00004
0.00074
0.00045
0.00128
0.00059
-0.00941
0.00095
-0.00380
0.00009
0.00106
0.00296
0.00045
0.01797
0.00011
0.00014
0.00019
-0.00020
0.00606
0.01145
0.00147
0.00024
-0.00444
-0.00344
0.00003
0.00092
0.00115
0.04927
0.00308
0.02828
-0.00017
0.00017
0.00178
0.00035
0.00008
0.00069
0.00009
0.00000
-0.00832
0.01910
0.00119
0.00013
0.00020
-0.00005
-0.00157
0.00001
-0.02238
0.00004
0.00001
0.00002
-0.00474
0.02771
-0.00021
0.00002
0.00492
0.01063
0.00008
0.03366
0.00029
-0.00002
-0.00773
-0.01094
0.00014
0.00108
0.00178
0.00082
-0.00011
-0.00140
0.00266
0.00042
-0.00080
-0.00814
-0.00552
0.00051
-0.00120
0.00537
-0.00161
0.00015
0.00081
0.00001
-0.00002
-0.00101
0.00165
-0.00003
-0.00022
-0.00034
0.02141
0.00016
0.00010
-0.02886
0.00102
0.00115
0.00302
-0.03608
0.00024
0.00484
-0.00367
0.00002
-0.02511
0.00234
-0.00025
0.00493
0.00335
-0.00052
-0.00351
-0.00001
0.00004
-0.00005
0.00055
-0.00008
0.00399
-0.00002
0.00040
0.00015
-0.00157
0.00062
0.00000
-0.00016
0.00020
-0.00038
0.00043
0.00014
-0.00075
-0.01376
-0.00025
0.00092
-0.00022
0.00086
0.04989
0.00048
0.00186
0.00036
0.00035
-0.00223
-0.00069
0.00070
0.00021
0.02911
-0.00023
0.00010
0.01088
0.00633
-0.09332
0.00048
0.00008
-0.00009
-0.02183
-0.00005
0.00039
0.00005
0.00014
0.00127
-0.00362
0.08760
0.01261
-0.00223
-0.00030
-0.00005
0.00112
-0.00868
-0.00005
0.00126
-0.00017
-0.01232
0.00018
-0.00002
-0.00377
-0.00718
0.00007
-0.00132
-0.00019
0.00007
-0.01060
0.00013
0.00019
0.00477
-0.02521
0.00389
0.00014
0.00397
-0.00035
0.02185
-0.00583
0.00004
-0.01294
-0.00013
-0.00060
0.00040
-0.00037
0.00009
0.00056
0.00007
0.00144
-0.00183
-0.00053
-0.00003
-0.00740
-0.00046
-0.00370
0.02755
0.02581
-0.00055
-0.00004
-0.00238
-0.00842
0.01210
-0.00792
0.00627
0.00771
0.00006
0.00382
-0.00050
0.00580
-0.02411
0.00027
-0.00009
0.00155
-0.04244
0.00617
0.00009
-0.00002
-0.00421
0.00004
-0.00401
-0.00014
-0.00009
0.02063
0.00044
0.00005
-0.00004
-0.04272
0.00078
0.00477
0.01567
0.00064
-0.00102
0.00011
0.00684
-0.00196
0.00521
0.00133
-0.00049
-0.00018
-0.02582
0.00089
0.00332
-0.00984
0.00270
-0.03709
-0.00004
-0.00744
-0.00142
-0.00640
0.00049
-0.00005
-0.00021
0.00118
-0.00005
-0.00001
-0.00004
-0.00089
0.00428
-0.00080
-0.00025
0.00312
0.00713
-0.09030
0.00013
-0.00029
-0.00007
0.02132
-0.00188
0.00353
0.00171
0.00032
-0.00277
-0.00742
0.00023
0.00003
0.03885
0.03319
-0.00412
0.00050
-0.00032
0.01237
-0.00025
0.00026
0.00579
-0.00085
-0.00004
-0.00500
0.00237
0.00018
0.00626
-0.00003
0.00602
0.00005
0.00072
0.01639
-0.00295
-0.00075
0.05892
-0.01744
-0.00023
0.00001
-0.00551
0.00071
-0.00011
-0.00003
-0.02351
-0.00045
-0.04318
0.00001
-0.05150
-0.00011
0.04769
-0.00140
0.00511
-0.00033
-0.02174
0.02997
0.00465
-0.00196
0.00462
-0.00544
0.04676
-0.00140
0.00172
0.00079
-0.00156
0.00020
-0.01706
0.00818
-0.04783
-0.00115
-0.00004
-0.13269
-0.01040
-0.00001
0.00026
0.00008
0.00142
0.00020
-0.00023
0.00028
-0.00013
0.00702
-0.00004
0.00005
-0.00002
-0.00062
-0.00011
-0.00048
-0.00028
0.00012
0.02928
-0.00012
0.07720
0.00318
0.02885
-0.00012
-0.00236
0.00020
0.00055
-0.00025
-0.00372
0.00045
-0.00009
0.00195
0.02179
0.04142
0.01079
0.00744
0.00476
0.00082
0.00049
0.00114
-0.03945
-0.00976
-0.00039
0.00088
-0.00003
0.07526
-0.00000
-0.00016
-0.00003
0.00040
0.00044
-0.02693
-0.00018
0.01394
-0.00204
0.00010
0.00089
-0.00389
0.00025
-0.00079
0.01754
-0.00188
0.00046
-0.01011
0.00223
-0.00565
0.06193
0.00015
-0.00027
0.01319
0.01547
0.00026
0.00259
0.00006
-0.00045
-0.00030
-0.00049
-0.03698
-0.01318
0.01553
-0.04353
0.00017
-0.00011
0.00761
-0.00111
0.00035
0.04774
0.00005
-0.00118
0.00006
0.05454
-0.00025
-0.00037
0.00009
0.00044
-0.00521
-0.01530
0.00129
-0.02626
0.00000
0.00046
0.00039
-0.00008
0.01370
-0.01174
0.00105
0.00037
-0.00076
0.00019
0.03684
0.00043
-0.00355
0.01790
0.01085
0.00188
0.00153
0.00086
-0.00646
-0.00232
0.00007
0.00392
0.02646
0.00124
-0.00263
-0.00085
0.01352
-0.00014
-0.00010
0.00019
-0.01740
0.00001
0.00005
-0.00237
-0.03017
0.00007
-0.00044
-0.00013
0.00008
-0.00043
-0.00142
0.00029
0.00004
-0.00896
-0.00026
0.00408
0.00926
-0.00004
-0.00483
-0.00118
0.00050
-0.00002
0.01359
-0.00025
-0.00739
-0.02073
0.00067
0.00018
0.00008
0.01239
-0.03267
-0.01964
0.00078
0.00134
-0.00028
0.00003
0.02473
-0.00027
-0.00001
-0.00014
-0.00002
-0.00487
0.00000
0.13847
-0.00908
0.00296
-0.00009
0.05625
0.00568
-0.00216
0.00315
-0.00005
0.00015
-0.00574
-0.00006
0.00421
-0.02186
0.00239
-0.00013
-0.00006
0.01031
-0.00751
0.00189
0.00136
0.00086
-0.00813
-0.00006
0.00011
0.02097
-0.00117
0.00024
-0.00003
0.00005
0.00221
-0.00001
0.00102
0.00025
-0.00010
0.00010
0.00002
-0.00002
-0.00148
0.00011
0.00019
0.00002
-0.00029
-0.00194
0.01904
0.00623
0.00025
-0.00102
-0.00016
0.03064
0.00073
-0.05485
-0.00006
-0.00004
0.07723
0.01392
-0.00042
-0.00623
-0.04120
0.00006
-0.01300
0.00047
-0.00107
-0.00026
0.00045
-0.00190
-0.00252
-0.01371
-0.00086
0.00017
0.00002
0.00001
0.00001
-0.00002
-0.00053
-0.00001
-0.00001
-0.00271
-0.00610
-0.00045
-0.00196
-0.00001
-0.00038
0.00038
0.01219
0.00396
-0.00690
-0.00001
0.06233
-0.00017
-0.00095
0.00563
-0.00006
-0.00310
-0.00005
-0.00004
0.00047
-0.00009
0.00124
-0.00641
0.00188
-0.00026
0.00380
-0.00128