# vtk DataFile Version 3.0
Point representing Sub_cellular elem model
ASCII

DATASET UNSTRUCTURED_GRID
POINTS 1336 float
2.28206 -22.98604 0.42614 
-20.92549 5.45961 -6.42729 
-10.90631 14.33679 -10.79801 
15.39941 23.41861 -3.32159 
12.86088 -6.15972 5.33878 
-11.13899 -11.68909 24.46341 
-12.54529 -21.85759 -6.89559 
-17.35848 -10.14748 -0.10717 
19.11204 -15.37756 6.03384 
-1.64616 10.98214 -16.23746 
11.45605 4.68225 4.26675 
-20.14790 -12.97680 -2.20940 
-9.18620 -8.63860 -5.39070 
13.27059 11.67049 19.68049 
-1.44305 -22.43625 4.16875 
-2.49707 -20.12897 -11.78027 
-4.81606 -2.39855 -27.04216 
1.58924 0.38896 24.39414 
25.26396 8.59516 2.15296 
-3.12302 -20.73562 16.64798 
13.01223 0.52106 5.09443 
-6.23805 5.95325 13.44775 
13.37647 0.65510 10.50427 
13.75342 3.26252 -21.41128 
-0.65286 10.65459 -11.62161 
9.69919 -2.53711 -21.68541 
15.14491 -19.94619 -0.33925 
-17.03209 11.62181 -19.15739 
-2.17860 -23.11200 3.63780 
17.99510 -1.81080 7.04360 
16.42064 -3.71346 -12.60176 
-13.93024 -10.46174 -20.25424 
3.29447 17.27875 6.94166 
-16.30863 21.39587 0.39765 
16.69475 7.47035 1.59805 
-0.10268 -7.41421 -9.88181 
-12.83559 -21.87959 1.47551 
21.17444 -1.48246 1.84214 
13.66145 5.19886 -19.43125 
-19.37550 -5.42380 -8.58050 
15.69232 6.68442 7.13342 
3.35468 -7.40702 -6.80702 
-8.92224 9.68046 8.48616 
6.83468 1.66938 -11.43902 
-23.70734 -1.82484 6.43766 
22.54707 -6.11853 12.14667 
-7.87231 19.57889 -2.03361 
5.88701 -3.88559 19.03661 
-26.65827 2.78553 -11.90767 
10.85023 21.29353 11.38913 
-1.52427 17.81108 -21.02131 
16.72312 9.53142 1.79032 
-8.16676 7.37724 -25.90666 
2.91234 3.08914 8.12854 
19.81364 -20.98556 0.38383 
26.86965 2.67855 3.43725 
13.55654 17.13314 3.67134 
-6.56838 -14.45868 3.34512 
-18.59556 -2.02786 1.32194 
-13.76607 -3.16847 -23.76197 
6.61475 -18.05705 -19.16365 
0.61641 -6.67587 -25.03887 
-9.52263 7.90277 10.08267 
-1.70042 -25.54142 3.32538 
9.62144 22.25134 -10.45426 
-3.56612 -3.09432 27.85778 
13.42346 15.18816 13.71546 
11.44639 23.22929 -7.41311 
4.11437 24.84157 8.75317 
25.76342 4.88732 4.64142 
14.35697 9.83877 10.89407 
11.89582 19.57702 -7.04978 
0.58124 -22.62970 -12.27070 
19.30136 6.46776 12.84176 
-22.46000 -14.98466 3.22675 
-18.84518 -1.30428 12.93972 
-18.41841 19.37369 4.29339 
-19.22030 -17.36840 -0.00065 
3.08586 12.30096 13.49536 
7.76706 14.69786 -20.47334 
8.76668 0.58018 -24.40622 
-8.51635 -8.51695 -2.48125 
17.82092 -9.14136 6.20826 
3.40677 -24.80603 7.42337 
16.65607 -6.65493 -17.09853 
-4.65424 -20.03294 11.16856 
13.91004 4.16193 -17.81106 
5.81203 19.35083 15.71263 
12.81639 20.19759 -6.65501 
-2.71891 7.57609 -11.92941 
-14.86354 3.11454 -12.43226 
-16.06863 16.50227 -17.62663 
-7.56851 -2.16251 7.41999 
14.75935 16.40395 -15.61415 
-12.34566 9.19253 -20.20237 
-0.99200 -22.50602 -5.61412 
5.61458 -11.12082 -24.15422 
17.13540 23.84520 1.51940 
3.10191 3.25461 -6.39339 
-27.17195 1.92504 0.63061 
-25.80122 -3.16892 -4.10372 
8.71958 -21.31072 5.79858 
20.28169 8.58069 10.93299 
-6.61572 21.65318 -11.59432 
1.63363 -19.01387 -10.14117 
7.16037 2.12517 25.11617 
-0.54865 -9.63822 -24.14939 
-15.89879 -12.05179 15.87961 
-5.55815 23.11285 9.93365 
-7.45906 1.56004 -6.97276 
2.17942 -7.06168 -9.22868 
8.80900 -3.20150 24.98890 
11.41686 -17.41234 -20.63744 
-11.76602 -8.10652 16.75908 
5.61609 7.43039 -21.51461 
11.56476 -24.23894 1.35986 
-2.28630 24.70880 11.64400 
16.85090 -7.50139 10.74374 
-11.67923 -15.60063 9.38597 
20.61005 5.23335 12.12005 
15.04439 -11.98091 -7.59041 
-12.55460 24.68780 3.73990 
24.93546 -4.48134 -11.45114 
7.91014 12.16224 2.62524 
13.08890 7.18350 24.32990 
-20.05296 -3.37646 -5.83756 
25.56695 -8.62855 -9.44985 
2.80933 -6.10087 -11.03787 
-15.31193 -18.09543 5.17107 
-8.75649 16.91511 -2.70399 
-5.24163 -8.23223 26.46597 
-1.67721 -2.48911 -24.22741 
24.20425 13.99295 -6.52425 
-26.07427 -8.53637 5.49013 
-23.11940 -2.33970 -15.07520 
4.86799 18.67449 15.90839 
15.72763 11.13783 -5.80567 
-5.42535 -0.82733 -26.03655 
-15.02599 13.89701 -15.34059 
23.74615 -13.65465 1.35805 
6.12228 5.08218 -7.33422 
-0.32845 10.36015 2.32985 
10.65818 8.86888 -19.93622 
11.87059 -4.24881 -12.64121 
16.41987 -16.48923 -9.62763 
-1.48922 19.17621 -21.55138 
-13.21987 16.55943 12.44173 
17.99189 -14.91111 16.22389 
6.74795 20.73130 -18.74860 
-12.32518 -21.87058 -2.01908 
0.60109 -9.96775 -24.52386 
-9.39417 17.73632 5.92609 
-6.92782 24.29738 -5.44652 
4.27547 -5.38233 -15.14683 
16.83725 -3.82065 -7.02105 
-11.67167 3.82003 9.53763 
15.24066 4.69836 3.46236 
-2.81133 22.91377 -6.82583 
-10.99392 11.63718 6.19508 
-2.79699 -10.75979 15.89381 
-4.58681 18.26648 -17.11369 
0.34703 0.40311 26.07512 
-11.46897 12.49883 -18.67657 
-0.61903 -22.49080 -19.32930 
-3.74165 25.11605 9.77245 
6.85754 15.43814 -21.64906 
3.96098 -16.82332 -10.00262 
-7.23823 8.89727 -4.66653 
8.61852 11.68912 21.35152 
4.66699 -6.59291 12.17309 
14.15904 9.67114 -15.43236 
-2.53462 -16.24192 12.53018 
-18.54872 -7.16652 -19.70002 
-15.76380 -14.39020 -18.82670 
19.43603 21.37003 -7.24617 
10.31143 -9.04517 -9.41747 
15.55856 -14.21884 -19.05364 
13.09288 -0.75806 12.85288 
-4.34606 -13.14826 8.68544 
-5.76572 26.55538 -8.92562 
4.85341 2.66111 -11.59889 
-18.73049 4.45331 18.58881 
-23.22563 -2.07373 5.63357 
-15.00536 16.03212 9.74518 
-19.34837 11.77513 13.76293 
23.59593 -10.56567 -0.12159 
-12.59959 5.33851 15.95611 
-23.39626 -15.24486 1.95474 
-5.11871 8.28319 -7.58501 
-24.78337 5.89243 -7.30987 
5.62466 4.88646 28.86116 
-1.16342 -22.06102 -6.57532 
-12.29800 -12.41400 -14.07970 
13.82615 -0.35664 -2.93355 
-4.51137 16.60133 -3.83407 
-9.91421 2.79199 21.93059 
-14.14216 -10.52256 10.46784 
12.56490 5.90070 26.58060 
21.17010 -7.32500 2.67440 
11.63688 7.20078 11.48578 
-16.55036 -15.24266 2.08004 
-21.86559 -11.91159 10.06321 
3.73811 -0.41882 14.09751 
2.97409 7.03919 -21.50901 
-3.11618 -6.12388 7.97052 
18.36241 -8.71979 -17.16399 
-0.96317 11.45793 16.52203 
-2.63600 -15.12700 16.53740 
4.62494 -28.28176 5.15224 
-2.99663 -3.45623 -20.45523 
-14.57771 3.83509 24.34079 
-16.56992 -18.91772 -1.16212 
5.47524 9.67084 25.69464 
-3.83352 -22.43922 16.63198 
3.49121 -10.99029 -13.45399 
-15.59822 -0.11799 10.99568 
7.73937 -1.16483 19.59287 
-1.65438 14.29909 2.36515 
5.91815 4.32165 5.24305 
17.14497 12.79137 -10.06893 
4.26821 -9.08129 3.76241 
-0.49684 21.80023 1.75563 
4.34571 -1.63589 -18.53089 
4.36387 -28.73843 -6.01903 
17.34502 -11.92168 -15.22168 
5.48725 -7.41675 22.02225 
8.88814 -8.77086 -15.27446 
19.07377 -2.90443 8.40037 
-2.74579 -13.53249 -6.27469 
-20.11704 5.18256 5.12286 
-18.59246 -5.39726 -20.67106 
-16.73620 5.75680 2.16360 
17.88465 -4.55344 -12.93124 
-9.25655 26.36845 6.74845 
-25.80586 -3.29656 9.41904 
4.40648 -23.94212 8.88928 
-5.33819 16.41771 16.69151 
21.55426 0.25103 -2.82864 
-22.87287 4.33613 -2.64297 
25.36660 -13.69910 -0.17458 
21.35210 1.96230 3.26750 
-7.59326 -25.73206 5.76994 
-0.55406 -8.64007 -19.04857 
-9.68829 -24.23109 2.42931 
-9.90278 -0.96165 21.98242 
-6.71110 5.46850 -23.33100 
20.41580 4.61230 -11.86080 
8.42497 -8.76323 21.88537 
-16.77076 -8.44856 -19.22136 
-17.49013 -7.09273 -14.47693 
-16.10603 -6.99343 -10.07663 
-21.75431 -5.03871 -7.91061 
12.71109 -5.99061 15.35859 
-5.69684 -5.22354 -27.75784 
26.57677 6.95047 11.90967 
-13.80477 4.32753 4.27923 
-3.22385 -13.98785 -4.60625 
14.55420 -6.41370 -9.16110 
-16.61827 4.64183 23.14123 
-1.41230 -19.56040 -7.53780 
23.01560 -12.31150 -10.34590 
-26.76596 -5.39306 -9.07436 
-8.71599 15.43001 2.34401 
-0.38256 -29.84427 0.26612 
3.02458 -2.83762 -13.89242 
15.29976 6.73406 -12.17184 
2.98771 -11.83412 -2.98023 
-6.65245 10.25502 -23.00167 
-14.97139 11.93851 -4.98249 
-7.56170 -22.42120 0.91972 
-2.95647 16.92493 -1.61777 
-4.06886 12.70034 -24.04556 
25.57725 10.75205 4.39904 
4.38863 -14.76467 9.25313 
-14.79056 -6.70966 -20.41446 
22.75866 6.05296 -10.24134 
-3.47451 21.90684 2.25620 
2.40163 2.75513 -10.83587 
5.96770 -10.23480 25.42670 
4.36575 -3.85075 -14.89955 
0.94208 19.35756 14.86616 
2.05246 3.70396 3.78936 
7.56017 2.64407 -16.43083 
-3.40918 -12.51098 -5.77978 
9.63399 20.85689 -2.47151 
-5.05599 2.65711 23.01881 
-25.54200 -13.22440 -0.51457 
-14.55656 0.16206 -10.07316 
22.54352 -10.99298 5.89392 
22.42945 17.94025 0.72039 
-4.71755 -17.34575 16.93535 
7.70457 -12.87265 -12.15346 
-12.96892 12.45278 4.29298 
-13.69943 5.12847 4.26757 
12.30773 19.25353 6.00703 
-23.88712 -13.05882 -3.33442 
15.28868 17.59048 12.20538 
1.69763 -14.38597 15.39393 
-12.08156 -10.31796 16.94454 
-6.35884 -3.02614 -13.22354 
20.30236 -1.56724 3.02986 
3.08837 -12.27116 16.89914 
15.06147 -16.65243 -6.12833 
-0.16872 13.86528 19.47338 
0.31604 8.94515 -14.38265 
-5.37834 6.48706 22.25416 
20.21762 2.49741 20.31532 
0.50347 -4.36493 28.42597 
10.35508 -9.20922 -3.31132 
9.29373 -6.86897 9.16123 
9.02278 1.30628 0.01248 
7.31555 2.81765 2.62955 
-1.41980 -7.72760 -22.51600 
25.89452 -13.97118 -5.35948 
-16.15014 -12.38814 -6.43464 
-0.42431 -16.44841 -7.88161 
-5.79757 -8.71747 10.69893 
17.47576 11.37356 15.89516 
-0.16266 -4.22802 -15.05726 
0.06385 -23.04472 -10.35072 
26.38393 9.05333 4.19523 
-5.73097 18.81274 13.92726 
-4.24293 12.60097 -5.80343 
23.64176 9.60786 13.25086 
-21.02826 3.42764 19.47784 
20.28569 0.82798 21.97819 
-8.58013 -8.59115 27.01234 
23.83072 2.12192 -13.06888 
-5.77319 -6.88369 24.94061 
-3.70034 10.17536 2.75326 
-7.99659 9.82361 -24.76129 
-19.65447 -20.20677 2.82713 
-6.76266 -0.51760 -23.86186 
-2.13250 -2.94310 -6.30390 
25.32736 6.45006 6.27906 
-18.37392 -10.17492 16.94218 
15.27514 18.01834 -1.90736 
-16.83596 -0.48298 -13.95046 
11.27759 10.45509 -4.29341 
-6.71012 24.87548 10.91368 
14.61613 15.84843 7.22504 
-17.92263 -7.46963 -9.97453 
19.73716 -10.64634 -12.17674 
18.76861 -2.20559 11.21011 
-0.71914 13.46624 23.73593 
-4.48570 -18.79130 15.79580 
4.56367 5.91507 17.31307 
-8.57007 3.14363 -17.18247 
-19.95308 20.54032 -5.17208 
0.06795 19.63739 -3.62181 
10.67282 7.76282 -15.44838 
-1.02735 8.72665 21.71425 
[...]
CELL_DATA 2733
SCALARS Fiber_Strain double 
LOOKUP_TABLE default 
-0.00001
0.00000
-0.00000
-0.00000
0.00000
-0.00017
0.00000
0.00000
0.00000
-0.00000
-0.00000
-0.00007
0.00000
0.00000
0.00003
-0.00000
-0.00000
0.00000
0.00001
-0.00000
-0.00001
-0.00001
-0.00000
-0.00000
-0.00000
-0.00001
0.00000
-0.00000
-0.00001
0.00000
-0.00000
0.00001
-0.00001
0.00000
-0.00000
-0.00000
-0.00000
-0.00000
0.00000
0.00000
0.00001
-0.00003
0.00000
-0.00001
0.00001
-0.00000
-0.00039
-0.00000
-0.00001
-0.00000
0.00000
0.00000
0.00001
-0.00000
0.00001
-0.00000
0.00003
0.00000
0.00000
-0.00002
-0.00002
0.00027
-0.00001
-0.00009
-0.00000
-0.00000
-0.00000
-0.00001
0.00006
0.00001
0.00000
0.00000
-0.00000
0.00001
-0.00003
0.00000
-0.00001
-0.00000
-0.00000
-0.00171
0.00007
-0.00000
0.00000
-0.00001
0.00000
0.00000
-0.00008
-0.00000
-0.00001
0.00000
0.00010
0.00057
0.00000
0.00000
-0.00000
-0.00001
-0.00000
0.00000
0.00001
0.00000
-0.00013
0.00000
0.00000
-0.00023
0.00000
0.00000
0.00000
-0.00732
-0.00001
0.00003
0.00001
-0.00000
-0.00001
-0.00000
-0.00053
-0.00000
-0.00001
-0.00061
0.00028
0.00002
-0.00000
0.00003
0.00007
-0.00195
0.00002
-0.00004
-0.00031
0.00092
0.00003
-0.00011
-0.00086
0.00000
-0.00000
0.00039
-0.00022
-0.00003
-0.00000
0.00001
-0.00003
0.00002
-0.00005
0.00001
0.00002
-0.00003
0.00002
-0.00001
-0.00001
0.00000
0.00000
0.00000
-0.00012
-0.00046
-0.00000
0.00001
0.00038
-0.00002
-0.00003
0.00015
-0.00004
0.00000
0.00027
0.00001
0.00000
0.00002
0.00089
-0.00000
0.00000
0.00001
0.00008
-0.00002
-0.00009
-0.00001
-0.00058
-0.00002
0.00001
0.00002
0.00015
0.00032
0.00010
-0.00001
0.00000
-0.00003
-0.00019
-0.00043
-0.00086
0.00000
-0.00004
-0.00000
0.00001
-0.00001
-0.00000
0.00000
-0.00000
0.00000
0.00001
-0.00001
0.00005
0.00001
0.00001
0.00016
-0.00001
0.00116
-0.00000
-0.00344
0.00000
-0.00003
0.00014
0.00043
-0.00018
0.00017
-0.00154
0.00064
-0.00001
0.00001
0.00006
-0.00001
0.00000
-0.00000
0.00000
-0.00051
0.00005
0.00001
-0.00021
-0.00477
0.00149
-0.00028
0.00001
0.00000
0.00000
0.00000
-0.00011
0.00000
-0.00051
0.00003
-0.00003
-0.00002
-0.00001
0.00001
-0.00000
0.00079
0.00001
0.00000
0.00003
-0.00005
0.00000
0.00002
0.00000
0.00000
-0.00000
0.00004
0.00000
-0.00001
-0.00000
0.00052
0.00026
-0.00001
0.00000
-0.00000
-0.00000
0.00000
0.00002
-0.00003
0.00001
-0.00000
-0.00001
0.00003
-0.00028
-0.00000
-0.00008
0.00018
0.00000
0.00002
-0.00000
-0.00000
0.00002
0.00000
0.00000
-0.00002
0.00001
-0.00000
0.00000
-0.00001
-0.00000
-0.00000
0.00025
0.00002
-0.00000
-0.00001
0.00001
0.00001
-0.00000
-0.00002
-0.00019
-0.00000
0.00000
0.00000
0.00001
-0.00045
0.00000
-0.00000
0.00000
0.00050
0.00279
0.00002
-0.00000
-0.00005
0.00000
0.00001
0.00002
-0.00030
-0.00001
0.00004
-0.00001
0.00000
-0.00000
0.00000
0.00007
-0.00000
0.00000
0.00033
-0.00000
-0.00000
0.00001
-0.00000
0.00000
0.00001
0.00191
0.00000
0.00002
-0.00000
-0.00030
0.00000
-0.00000
0.00047
-0.00001
0.00000
-0.00000
0.00001
0.00002
0.00000
0.00000
-0.00062
0.00026
0.00002
0.00001
-0.00010
0.00002
-0.00000
-0.00137
-0.00056
-0.00001
-0.00001
-0.00000
0.00001
-0.00024
0.00000
0.00001
0.00003
-0.00000
-0.00001
-0.00022
0.00000
0.00000
0.00002
-0.00002
-0.00215
-0.00000
0.00000
-0.00000
-0.00000
0.00000
0.00049
0.00002
-0.00000
-0.00000
0.00001
0.00024
0.00000
-0.00000
0.00001
0.00167
-0.00098
0.00000
-0.00000
-0.00058
0.00002
0.00002
-0.00001
-0.00002
-0.00001
0.00001
0.00041
0.00000
0.00002
-0.00004
0.00000
0.00004
-0.00000
-0.00000
-0.00001
-0.00002
0.00003
-0.00033
0.00027
0.00211
-0.00245
0.00019
-0.00000
-0.00001
0.00024
-0.00176
-0.00001
-0.00012
-0.00003
-0.00017
-0.00005
-0.00059
-0.00000
-0.00001
-0.00003
0.00000
-0.00183
0.00000
0.00646
-0.00002
-0.00006
-0.00093
0.00056
0.00041
0.00001
0.00003
0.00001
0.00001
-0.00000
-0.00003
-0.00001
0.00048
-0.00001
0.00000
-0.00001
-0.00001
0.00045
-0.00026
-0.00000
-0.00001
-0.00002
0.00001
0.00002
0.00010
-0.00002
-0.00019
-0.00005
0.00001
0.00001
-0.00016
0.00003
0.00001
-0.00000
-0.00000
-0.00001
-0.00000
-0.00000
0.00001
-0.00000
0.00087
-0.00028
0.00001
0.00090
-0.00001
0.00003
-0.00023
0.00003
0.00006
-0.00024
0.00000
0.00084
-0.00020
-0.00001
0.00006
0.00006
0.00001
0.00000
-0.00006
0.00001
0.00003
-0.00001
-0.00002
-0.00000
-0.00021
0.00002
0.00001
0.00001
-0.00001
-0.00001
0.00122
0.00001
0.00000
-0.00013
-0.00000
0.00059
0.00001
-0.00001
0.00000
0.00000
0.00036
-0.00004
0.00000
0.00050
0.00004
0.00004
-0.00022
-0.00005
0.00000
-0.00000
0.00001
0.00001
-0.00000
-0.00000
0.00003
-0.00068
0.00000
-0.00076
-0.00000
-0.00001
0.00001
-0.00083
0.00000
0.00010
0.00003
0.00059
-0.00002
0.00002
0.00000
-0.00000
-0.00000
-0.00035
-0.00003
-0.00221
-0.00000
-0.00001
0.00000
0.00000
0.00014
0.00001
-0.00096
0.00001
-0.00000
0.00036
0.00014
0.00000
0.00000
0.00003
0.00146
-0.00001
0.00001
-0.00123
0.00008
-0.00000
0.00012
0.00000
0.00000
0.00001
0.00012
-0.00011
-0.00001
-0.00002
-0.00002
0.00015
-0.00000
-0.00000
-0.00002
-0.00205
-0.00004
0.00000
-0.00042
-0.00000
-0.00000
0.00012
-0.00000
0.00031
0.00002
0.00001
0.00004
0.00000
0.00000
0.00130
0.00001
0.00001
0.00000
-0.00000
-0.00151
0.00000
0.00000
0.00001
0.00001
0.00001
-0.00002
-0.00000
-0.00000
0.00033
0.00000
-0.00001
-0.00001
-0.00000
0.00006
0.00000
0.00000
0.00003
0.00000
0.00020
0.00001
0.00038
0.00000
-0.00179
0.00001
-0.00000
-0.00000
-0.00000
0.00001
-0.00000
-0.00001
0.00000
-0.00001
0.00030
0.00000
0.00057
-0.00000
-0.00000
-0.00000
0.00002
0.00000
-0.00004
0.00029
-0.00003
-0.00000
0.00003
0.00013
0.00017
-0.00000
-0.00000
0.00000
0.00000
-0.00000
-0.00003
0.00060
-0.00083
0.00001
-0.00009
0.00066
0.00001
-0.00086
0.00003
0.00000
0.00001
-0.00000
0.00005
0.00000
-0.00001
-0.00000
0.00000
0.00002
-0.00004
0.00000
0.00001
-0.00000
0.00029
0.00000
-0.00083
-0.00006
0.00001
-0.00000
-0.00004
0.00005
0.00070
-0.00000
0.00007
0.00019
0.00012
0.00001
0.00042
-0.00008
0.00000
0.00022
0.00000
0.00000
0.00126
-0.00002
0.00000
0.00000
0.00000
0.00000
-0.00002
0.00001
-0.00194
0.00000
-0.00001
-0.00000
-0.00001
0.00001
-0.00000
0.00009
-0.00026
0.00000
-0.00002
0.00025
-0.00000
0.00000
0.00003
0.00001
0.00001
-0.00000
0.00000
0.00000
-0.00079
-0.00001
-0.00000
0.00110
-0.00000
0.00002
0.00004
0.00004
-0.00056
0.00024
-0.00005
0.00026
0.00122
0.00000
0.00020
-0.00007
0.00012
0.00000
0.00001
-0.00051
0.00000
-0.00000
0.00000
0.00000
-0.00001
-0.00000
0.00000
-0.00000
0.00006
0.00000
-0.00000
0.00006
-0.00000
0.00001
0.00000
-0.00045
0.00000
0.00000
-0.00014
0.00063
0.00001
-0.00000
0.00001
-0.00000
-0.00000
-0.00001
0.00000
0.00087
-0.00000
0.00004
0.00001
0.00021
0.00009
0.00000
0.00000
0.00002
0.00006
0.00003
0.00001
-0.00004
0.00002
-0.00000
0.00000
-0.00001
0.00001
0.00031
-0.00001
-0.00001
-0.00000
-0.00003
-0.00011
0.00017
0.00006
0.00002
0.00001
-0.00000
-0.00047
0.00050
-0.00004
0.00012
-0.00000
-0.00001
0.00011
-0.00011
0.00045
0.00010
-0.00102
-0.00001
0.00001
0.00000
-0.00001
0.00018
-0.00000
0.00001
0.00000
-0.00004
0.00003
0.00001
-0.00000
-0.00005
0.00002
-0.00001
0.00001
0.00003
-0.00000
0.00001
0.00003
0.00000
-0.00032
0.00001
0.00001
0.00000
0.00001
-0.00032
0.00001
-0.00020
-0.00000
0.00000
-0.00000
0.00004
-0.00019
-0.00000
0.00000
-0.00000
0.00000
-0.00000
-0.00004
0.00000
0.00003
-0.00001
-0.00003
0.00000
0.00088
0.00001
0.00025
0.00001
-0.00000
-0.00000
-0.00001
-0.00028
-0.00000
-0.00000
-0.00069
-0.00000
0.00010
-0.00000
-0.00000
0.00003
-0.00000
-0.00000
0.00001
-0.00022
-0.00000
-0.00000
-0.00001
0.00002
-0.00001
-0.00004
-0.00004
0.00001
-0.00040
0.00000
-0.00002
-0.00002
-0.00070
0.00001
0.00006
-0.00001
-0.00000
0.00001
0.00000
-0.00006
-0.00001
0.00000
-0.00000
0.00007
-0.00006
0.00002
-0.00003
0.00000
-0.00024
-0.00000
-0.00000
0.00000
0.00058
0.00000
-0.00000
0.00001
-0.00000
-0.00030
-0.00001
-0.00000
-0.00001
0.00003
0.00002
0.00001
0.00002
-0.00006
-0.00216
-0.00001
-0.00013
-0.00000
0.00000
0.00001
-0.00000
0.00000
-0.00001
-0.00001
0.00014
0.00000
0.00000
-0.00000
-0.00057
0.00001
-0.00003
0.00041
0.00000
-0.00002
-0.00002
0.00000
-0.00000
0.00003
-0.00001
0.00002
-0.00023
-0.00028
-0.00001
0.00001
0.00001
0.00002
0.00043
0.00066
0.00003
0.00001
0.00028
-0.00000
-0.00002
0.00001
-0.00001
0.00000
-0.00000
-0.00031
-0.00002
-0.00001
-0.00001
-0.00000
0.00000
0.00000
0.00000
-0.00023
0.00011
-0.00002
0.00001
-0.00001
0.00001
0.00002
-0.00004
0.00000
-0.00004
0.00000
-0.00001
-0.00000
-0.00004
0.00000
0.00000
0.00065
-0.00000
0.00007
0.00487
-0.00000
0.00024
-0.00079
0.00001
0.00000
0.00000
-0.00000
0.00002
-0.00001
0.00002
-0.00000
0.00000
0.00000
-0.00002
0.00000
-0.00002
0.00003
-0.00009
0.00101
-0.00000
0.00005
0.00001
-0.00017
0.00002
0.00003
-0.00000
-0.00001
-0.00000
-0.00000
0.00001
-0.00001
0.00002
-0.00042
-0.00001
-0.00000
-0.00004
0.00000
-0.00000
-0.00001
0.00000
-0.00068
0.00004
-0.00002
-0.00001
0.00000
0.00006
-0.00009
-0.00015
-0.00042
-0.00066
0.00000
-0.00010
0.00000
0.00003
0.00000
-0.00003
0.00001
0.00001
-0.00003
-0.00004
0.00000
0.00000
0.00000
0.00000
0.00000
0.00000
0.00001
0.00065
-0.00008
-0.00001
-0.00003
-0.00001
-0.00000
0.00003
0.00002
0.00081
-0.00000
-0.00006
-0.00015
-0.00002
-0.00000
-0.00002
-0.00036
-0.00001
0.00004
0.00110
-0.00036
-0.00002
0.00000
-0.00000
-0.00001
0.00000
0.00000
0.00001
-0.00001
0.00000
0.00003
-0.00000
0.00000
-0.00112
-0.00000
-0.00001
-0.00001
0.00003
0.00002
0.00000
0.00001
0.00000
0.00000
-0.00001
-0.00001
-0.00003
0.00000
0.00002
-0.00000
0.00063
0.00000
0.00000
0.00001
0.00000
-0.00001
-0.00000
0.00001
-0.00000
0.00000
-0.00000
-0.00000
0.00000
0.00001
0.00001
0.00056
-0.00002
0.00001
-0.00002
0.00013
-0.00001
-0.00000
-0.00001
0.00000
-0.00000
0.00018
0.00074
-0.00000
-0.00000
0.00011
-0.00003
-0.00000
-0.00000
0.00000
0.00000
-0.00000
-0.00048
0.00001
-0.00000
-0.00001
-0.00444
-0.00052
-0.00302
-0.00001
-0.00001
0.00001
0.00002
-0.00001
0.00002
0.00000
0.00000
0.00000
-0.00050
0.00039
-0.00000
-0.00000
0.00015
0.00001
0.00001
0.00002
0.00000
0.00000
-0.00001
0.00007
-0.00003
0.00000
0.00020
0.00000
0.00057
-0.00000
-0.00010
0.00002
-0.00001
-0.00001
0.00000
0.00001
-0.00011
-0.00044
-0.00001
0.00012
-0.00000
-0.00000
-0.00015
0.00000
-0.00001
-0.00005
-0.00001
0.00000
-0.00000
-0.00000
-0.00000
0.00001
0.00000
0.00000
0.00001
-0.00041
-0.00003
-0.00002
-0.00002
-0.00032
0.00001
-0.00000
-0.00004
-0.00006
0.00000
0.00168
-0.00006
-0.00053
0.00000
0.00003
0.00039
0.00000
-0.00003
0.00000
0.00000
-0.00000
0.00000
0.00027
0.00000
0.00004
0.00002
-0.00015
-0.00000
-0.00000
-0.00021
0.00004
-0.00001
0.00002
0.00000
0.00000
0.00003
0.00000
0.00000
0.00000
0.00003
-0.00015
0.00000
0.00000
0.00000
-0.00136
-0.00068
0.00001
0.00003
-0.00003
0.00000
0.00001
-0.00001
-0.00018
0.00011
-0.00001
0.00002
0.00001
-0.00000
0.00001
-0.00086
-0.00014
0.00002
0.00000
0.00088
0.00053
0.00001
0.00006
-0.00000
0.00001
-0.00017
-0.00095
-0.00000
-0.00001
0.00001
0.00000
0.00000
-0.00002
0.00000
0.00001
0.00000
0.00000
0.00000
0.00002
-0.00004
0.00001
-0.00000
0.00000
0.00001
-0.00001
0.00001
-0.00002
0.00071
0.00000
-0.00000
-0.00002
0.00000
-0.00002
0.00001
0.00006
0.00001
-0.00000
0.00002
-0.00001
0.00052
-0.00000
-0.00004
-0.00009
0.00117
-0.00022
0.00002
0.00002
-0.00001
-0.00002
-0.00000
0.00001
-0.00000
0.00000
-0.00002
0.00031
0.00004
0.00000
0.00101
-0.00002
-0.00001
-0.00000
-0.00000
0.00045
0.00053
-0.00000
0.00019
0.00002
-0.00059
-0.00000
-0.00000
-0.00002
-0.00001
0.00001
0.00007
0.00000
0.00000
0.00014
-0.00000
-0.00000
-0.00078
-0.00000
0.00000
-0.00003
0.00001
0.00000
-0.00003
0.00001
-0.00013
-0.00086
-0.00059
-0.00001
-0.00001
-0.00002
0.00000
-0.00000
-0.00006
-0.00001
0.00098
-0.00004
-0.00002
0.00001
0.00002
0.00001
0.00016
0.00000
0.00000
-0.00001
-0.00014
0.00000
0.00000
0.00001
-0.00008
0.00003
-0.00001
0.00000
0.00000
-0.00000
0.00000
-0.00000
0.00001
0.00000
0.00060
-0.00000
0.00030
-0.00000
-0.00000
-0.00015
-0.00000
0.00000
0.00000
-0.00000
0.00017
0.00039
-0.00000
-0.00015
0.00000
-0.00006
0.00000
-0.00000
-0.00002
-0.00000
0.00000
0.00000
-0.00000
0.00002
-0.00000
0.00026
-0.00002
-0.00001
-0.00000
-0.00029
-0.00002
-0.00070
-0.00002
-0.00000
0.00001
0.00008
0.00001
0.00005
-0.00004
0.00018
-0.00026
-0.00033
0.00000
0.00000
-0.00127
0.00000
-0.00001
0.00000
0.00001
0.00002
-0.00025
0.00000
0.00000
-0.00001
-0.00000
-0.00000
-0.00000
-0.00000
-0.00001
0.00002
0.00000
0.00007
-0.00003
-0.00000
-0.00004
0.00000
0.00001
0.00000
-0.00001
0.00000
-0.00000
0.00000
0.00001
-0.00000
0.00001
-0.00001
-0.00036
0.00000
-0.00006
0.00002
-0.00000
0.00000
0.00007
0.00017
-0.00000
-0.00005
0.00001
0.00003
-0.00000
0.00001
0.00002
0.00003
-0.00005
0.00000
-0.00001
0.00019
-0.00001
-0.00018
0.00002
0.00095
-0.00000
0.00001
0.00000
0.00001
0.00002
0.00003
0.00000
0.00000
0.00000
0.00002
0.00001
0.00001
0.00000
0.00006
0.00001
-0.00001
0.00000
0.00005
-0.00001
0.00000
-0.00056
0.00001
0.00002
0.00001
0.00003
0.00002
-0.00000
-0.00001
-0.00057
0.00000
0.00002
0.00003
-0.00000
0.00000
-0.00001
-0.00002
-0.00040
-0.00001
0.00000
-0.00000
0.00001
-0.00008
-0.00001
-0.00002
-0.00039
-0.00002
0.00000
0.00000
0.00004
0.00000
0.00003
0.00000
0.00001
0.00001
0.00005
-0.00000
0.00000
0.00001
-0.00003
0.00000
-0.00000
-0.00000
-0.00000
-0.00001
-0.00000
-0.00020
0.00000
0.00002
0.00059
-0.00002
0.00181
0.00001
0.00001
0.00004
-0.00000
-0.00014
0.00001
0.00000
0.00002
-0.00050
-0.00000
-0.00002
-0.00000
-0.00000
0.00000
0.00053
-0.00002
0.00000
0.00001
0.00000
0.00000
0.00001
0.00006
0.00066
-0.00000
0.00000
-0.00000
-0.00012
0.00001
-0.00000
-0.00024
-0.00001
-0.00006
0.00001
-0.00001
-0.00007
0.00001
-0.00000
-0.00024
-0.00070
0.00000
-0.00001
0.00003
0.00019
-0.00010
-0.00000
0.00007
0.00000
0.00011
0.00000
-0.00024
-0.00008
-0.00016
0.00002
0.00007
0.00000
0.00000
-0.00002
-0.00042
-0.00000
-0.00000
0.00006
-0.00036
-0.00002
-0.00001
-0.00003
0.00000
-0.00000
-0.00024
-0.00003
-0.00000
0.00000
0.00056
-0.00143
-0.00010
-0.00003
0.00000
0.00000
0.00025
0.00081
-0.00004
0.00033
-0.00006
-0.00002
-0.00051
0.00001
0.00027
-0.00000
-0.00001
-0.00003
-0.00000
0.00001
-0.00018
0.00001
-0.00000
-0.00036
0.00002
0.00000
0.00005
0.00004
-0.00004
-0.00000
0.00000
-0.00000
0.00000
0.00000
-0.00001
0.00019
0.00001
0.00084
-0.00003
0.00000
0.00000
-0.00034
0.00001
0.00002
0.00004
0.00001
-0.00001
0.00000
-0.00002
0.00000
0.00002
0.00005
0.00002
-0.00001
0.00001
-0.00000
-0.00076
-0.00001
-0.00004
0.00030
-0.00000
0.00002
-0.00019
0.00002
-0.00003
0.00030
-0.00101
-0.00000
0.00000
-0.00001
-0.00000
0.00000
0.00046
-0.00000
-0.00075
-0.00000
-0.00001
-0.00022
-0.00031
0.00002
0.00000
-0.00001
0.00000
0.00000
0.00004
0.00001
-0.00000
0.00000
-0.00003
-0.00005
0.00003
-0.00034
0.00001
0.00000
-0.00012
-0.00003
-0.00000
0.00041
0.00006
0.00001
0.00057
0.00000
0.00000
-0.00001
-0.00000
-0.00002
-0.00000
-0.00000
-0.00076
-0.00001
-0.00008
0.00000
0.00011
0.00001
-0.00000
-0.00000
-0.00001
0.00000
-0.00000
-0.00001
0.00004
-0.00000
0.00000
0.00004
0.00001
-0.00001
-0.00000
0.00000
-0.00004
-0.00008
-0.00002
0.00001
-0.00002
-0.00029
-0.00006
0.00001
-0.00000
0.00063
0.00008
0.00037
0.00000
0.00001
-0.00013
-0.00002
0.00000
-0.00000
0.00000
0.00000
0.00000
0.00014
0.00000
-0.00001
-0.00000
0.00006
-0.00000
-0.00001
-0.00066
-0.00000
-0.00002
0.00002
-0.00016
0.00089
-0.00000
0.00001
-0.00007
0.00013
0.00000
0.00003
-0.00002
-0.00000
-0.00099
-0.00014
-0.00001
0.00001
-0.00005
0.00000
0.00001
0.00006
-0.00031
0.00003
0.00000
-0.00001
-0.00000
-0.00002
-0.00009
0.00000
-0.00002
-0.00000
0.00011
-0.00000
-0.00000
-0.00001
-0.00000
0.00000
-0.00004
0.00005
-0.00000
0.00002
0.00000
-0.00038
0.00015
-0.00000
0.00000
-0.00016
-0.00001
0.00000
0.00001
-0.00000
-0.00000
0.00004
-0.00000
0.00003
0.00008
-0.00000
-0.00013
0.00001
0.00001
-0.00000
-0.00003
-0.00000
0.00070
-0.00000
0.00009
-0.00001
-0.00005
-0.00000
-0.00000
0.00000
-0.00003
-0.00000
-0.00004
-0.00000
-0.00000
0.00001
0.00000
0.00000
0.00000
0.00000
0.00036
-0.00001
-0.00000
-0.00001
0.00009
0.00000
-0.00005
-0.00000
-0.00000
-0.00058
-0.00001
0.00000
0.00015
-0.00000
0.00130
0.00000
0.00001
-0.00000
-0.00022
0.00000
0.00002
0.00000
0.00001
0.00001
-0.00004
-0.00002
0.00015
0.00003
-0.00000
-0.00001
0.00000
0.00005
-0.00000
-0.00001
0.00000
0.00000
-0.00000
-0.00000
-0.00015
-0.00000
0.00002
0.00000
0.00003
0.00000
0.00001
0.00001
0.00001
-0.00001
0.00001
0.00001
-0.00000
0.00001
0.00002
0.00015
-0.00002
-0.00000
0.00002
-0.00000
0.00001
-0.00000
-0.00000
-0.00000
-0.00000
-0.00001
-0.00005
-0.00015
-0.00000
0.00000
-0.00028
-0.00000
-0.00000
0.00072
-0.00024
-0.00010
-0.00000
0.00003
-0.00030
0.00020
-0.00001
-0.00002
-0.00000
0.00001
-0.00003
-0.00000
-0.00000
-0.00036
0.00000
-0.00000
-0.00002
-0.00054
-0.00013
0.00006
0.00000
-0.00001
-0.00000
0.00002
0.00000
-0.00000
-0.00001
0.00001
-0.00001
-0.00000
0.00001
-0.00000
0.00000
0.00001
0.00002
0.00002
0.00000
0.00006
-0.00009
-0.00003
-0.00001
-0.00000
0.00002
-0.00131
0.00008
0.00025
0.00003
-0.00000
-0.00051
-0.00001
-0.00042
-0.00001
-0.00001
0.00000
0.00001
-0.00000
0.00000
-0.00001
0.00000
0.00000
-0.00001
0.00000
0.00002
0.00001
0.00014
0.00010
-0.00088
0.00001
0.00001
-0.00000
-0.00004
0.00000
-0.00002
-0.00001
-0.00000
0.00017
-0.00000
0.00000
0.00000
0.00050
0.00058
0.00003
0.00000
0.00004
0.00007
0.00002
-0.00000
-0.00000
-0.00005
0.00000
-0.00016
-0.00008
0.00001
-0.00001
-0.00000
-0.00000
-0.00000
0.00000
-0.00000
-0.00000
-0.00000
0.00070
-0.00001
0.00000
-0.00000
-0.00001
0.00001
-0.00001
0.00001
-0.00006
-0.00000
-0.00031
-0.00001
-0.00107
-0.00000
0.00048
0.00000
0.00001
-0.00014
-0.00047
0.00058
0.00024
-0.00000
0.00009
-0.00001
-0.00251
0.00000
0.00002
-0.00000
-0.00000
0.00002
-0.00001
0.00020
0.00003
0.00003
0.00000
-0.00186
-0.00001
0.00001
-0.00003
0.00000
-0.00000
0.00000
-0.00000
-0.00002
0.00001
0.00003
-0.00000
0.00000
0.00000
0.00000
0.00004
0.00000
0.00000
0.00000
0.00044
0.00000
0.00085
0.00000
0.00019
-0.00001
0.00001
0.00001
-0.00001
0.00000
-0.00000
-0.00000
-0.00004
0.00001
0.00040
0.00008
-0.00000
0.00017
0.00021
-0.00000
0.00000
-0.00000
-0.00006
-0.00014
0.00000
-0.00002
-0.00000
0.00062
-0.00002
0.00000
-0.00001
0.00002
-0.00000
-0.00055
0.00000
0.00000
0.00000
0.00000
-0.00001
-0.00001
-0.00000
0.00000
0.00035
-0.00003
0.00010
-0.00002
-0.00005
0.00029
0.00074
-0.00001
-0.00001
-0.00000
-0.00001
0.00003
0.00040
0.00001
-0.00000
-0.00001
-0.00002
-0.00073
-0.00009
0.00010
-0.00009
-0.00000
-0.00002
0.00001
-0.00009
0.00001
0.00081
0.00000
-0.00001
-0.00005
0.00064
0.00001
0.00001
-0.00001
0.00002
0.00001
-0.00057
0.00003
0.00020
0.00000
-0.00002
-0.00000
-0.00000
0.00002
-0.00034
0.00001
0.00003
0.00002
-0.00000
0.00057
-0.00003
0.00002
0.00038
-0.00020
-0.00000
0.00000
-0.00004
0.00002
0.00000
0.00000
-0.00000
0.00108
-0.00001
0.00004
0.00005
0.00016
-0.00000
0.00001
0.00006
-0.00018
0.00000
0.00000
-0.00000
-0.00089
-0.00000
-0.00003
0.00000
0.00001
-0.00001
0.00002
0.00007
0.00000
0.00000
-0.00001
0.00001
0.00002
0.00000
-0.00000
0.00000
0.00000
-0.00000
0.00013
-0.00001
0.00001
-0.00032
-0.00005
-0.00001
0.00000
0.00031
-0.00071
-0.00054
-0.00000
0.00003
0.00001
0.00000
0.00053
-0.00000
-0.00000
0.00000
-0.00001
-0.00002
0.00000
0.00630
-0.00019
0.00000
0.00003
0.00044
0.00017
-0.00005
-0.00000
0.00001
0.00000
0.00000
0.00001
-0.00000
0.00041
-0.00001
-0.00000
-0.00003
0.00009
0.00005
0.00000
-0.00000
0.00001
-0.00003
-0.00000
-0.00000
-0.00000
0.00007
0.00000
0.00001
0.00001
0.00000
-0.00000
0.00001
-0.00002
-0.00000
0.00002
0.00000
0.00000
-0.00005
-0.00000
-0.00000
0.00003
-0.00000
0.00002
-0.00001
-0.00026
0.00000
-0.00018
0.00000
0.00022
0.00006
-0.00067
0.00001
-0.00000
0.00072
0.00054
-0.00001
0.00000
-0.00036
-0.00000
-0.00000
0.00005
0.00000
-0.00000
0.00002
0.00000
-0.00001
0.00003
-0.00008
0.00003
-0.00000
0.00000
-0.00001
0.00000
-0.00001
-0.00002
-0.00000
-0.00000
0.00197
-0.00000
-0.00000
0.00004
-0.00004
-0.00000
-0.00006
-0.00005
-0.00001
0.00000
0.00061
0.00002
-0.00019
0.00018
0.00001
-0.00024
-0.00000
0.00001
-0.00001
0.00000
0.00001
0.00001
0.00003
-0.00000
-0.00002
0.00001
-0.00004
-0.00000
0.00001
-0.00000
-0.00000
-0.00000