# vtk DataFile Version 3.0
Point representing Sub_cellular elem model
ASCII

DATASET UNSTRUCTURED_GRID
POINTS 1336 float
2.28275 -22.98770 0.42712 
-20.92695 5.45976 -6.42849 
-10.90288 14.34179 -10.79215 
15.40346 23.41982 -3.33066 
12.86267 -6.15772 5.34082 
-11.17165 -11.50188 24.54231 
-12.54632 -21.85850 -6.89670 
-17.35645 -10.14373 -0.10284 
19.11181 -15.37832 6.03341 
-1.64691 10.98119 -16.23798 
11.45441 4.67859 4.26263 
-20.14742 -12.97633 -2.20891 
-9.18785 -8.64165 -5.39171 
13.27674 11.66789 19.68101 
-1.44333 -22.43647 4.16836 
-2.49725 -20.12909 -11.78007 
-4.82483 -2.38971 -27.04998 
1.58939 0.41201 24.38373 
25.24681 8.60344 2.14776 
-3.20197 -20.68134 16.71483 
13.01413 0.54812 5.08726 
-6.19483 5.95375 13.44736 
13.37506 0.65527 10.50450 
13.76967 3.22639 -21.40130 
-0.65379 10.65475 -11.62432 
9.69074 -2.54084 -21.66065 
15.14570 -19.94566 -0.33836 
-17.03345 11.62018 -19.15816 
-2.17819 -23.11246 3.63742 
17.99566 -1.81041 7.04408 
16.42321 -3.71195 -12.59958 
-13.92686 -10.45923 -20.25095 
3.32907 17.26331 6.91246 
-16.30895 21.39516 0.39748 
16.69346 7.46902 1.59614 
-0.09585 -7.43391 -9.89806 
-12.83728 -21.87755 1.47493 
21.17603 -1.48289 1.84165 
13.76455 5.09697 -19.80468 
-19.37273 -5.42097 -8.57750 
15.80863 6.67465 7.08472 
3.35354 -7.39104 -6.81341 
-8.92193 9.68150 8.48645 
6.83484 1.71266 -11.58555 
-23.70932 -1.82954 6.43228 
22.54461 -6.12116 12.14372 
-7.87621 19.57658 -2.03341 
5.88703 -3.90220 19.01698 
-26.65626 2.78748 -11.90590 
10.84739 21.29115 11.38552 
-1.92629 17.63627 -20.98313 
16.72017 9.52729 1.78743 
-8.10492 7.49492 -25.80437 
2.87710 3.08759 8.15476 
19.81450 -20.98486 0.38438 
26.85186 2.78042 3.51909 
13.55971 17.17041 3.63461 
-6.56412 -14.47165 3.36468 
-18.59553 -2.02738 1.32439 
-13.76469 -3.16813 -23.76178 
6.59565 -18.03805 -19.14878 
0.63166 -6.64456 -25.07110 
-9.52077 7.90498 10.08466 
-1.70161 -25.54253 3.32360 
9.62330 22.25210 -10.45293 
-3.54030 -3.13709 27.85816 
13.40777 15.16730 13.72546 
11.44866 23.23092 -7.41101 
4.11146 24.84454 8.75442 
25.77791 4.89096 4.51748 
14.36320 9.85534 10.88546 
11.89599 19.57649 -7.05120 
0.58099 -22.63005 -12.27112 
19.30166 6.46876 12.84262 
-22.56094 -15.13108 3.27620 
-18.85159 -1.31332 12.93147 
-18.42824 19.37934 4.29217 
-19.21962 -17.36784 -0.00028 
3.04299 12.35125 13.44222 
7.72091 14.62179 -20.49973 
8.70063 0.47297 -24.49069 
-8.47252 -8.64449 -2.50697 
17.62423 -8.98632 6.15364 
3.40802 -24.80454 7.42454 
16.65428 -6.64487 -17.10176 
-4.65989 -20.03816 11.16442 
13.79212 4.51216 -18.05170 
5.81118 19.35027 15.71175 
12.81557 20.19778 -6.65418 
-2.71905 7.57942 -11.92778 
-14.97798 3.23774 -12.54491 
-16.06756 16.50324 -17.62553 
-7.56921 -2.16299 7.41920 
14.75665 16.40138 -15.61627 
-12.34960 9.18938 -20.20409 
-0.99485 -22.50914 -5.61706 
5.64904 -11.12821 -24.14281 
17.14433 23.84519 1.52575 
3.10243 3.25303 -6.39232 
-27.17300 1.88847 0.64136 
-25.83555 -3.14585 -4.13046 
8.60964 -21.20217 5.86350 
20.28499 8.58742 10.93494 
-6.61636 21.65336 -11.59427 
1.63058 -19.01635 -10.14370 
7.16158 2.12408 25.11345 
-0.57586 -9.60795 -24.18950 
-15.90225 -12.05554 15.87592 
-5.55686 23.11502 9.93515 
-7.46067 1.55839 -6.97351 
2.18663 -7.02949 -9.20179 
8.80950 -3.20173 24.99230 
11.41300 -17.41395 -20.63821 
-11.76662 -8.10586 16.75892 
5.61440 7.41638 -21.51841 
11.54933 -24.22858 1.39301 
-2.32123 24.69188 11.64506 
16.94625 -7.32345 10.76095 
-11.77856 -15.39823 9.01502 
20.61239 5.23294 12.11574 
15.00043 -11.98618 -7.70343 
-12.55318 24.68998 3.74153 
24.93501 -4.48236 -11.45142 
7.91183 12.16386 2.62703 
13.09065 7.18524 24.32964 
-20.05212 -3.37562 -5.83657 
25.56795 -8.63200 -9.44872 
2.83609 -6.07986 -11.04015 
-15.31266 -18.09625 5.17054 
-8.75180 16.91438 -2.70233 
-5.24382 -8.23593 26.46705 
-1.68060 -2.49037 -24.22950 
24.25076 13.96311 -6.44900 
-26.09378 -8.53943 5.49638 
-23.11763 -2.33798 -15.07329 
4.86630 18.67251 15.90771 
15.72752 11.13809 -5.80558 
-5.42869 -0.81566 -26.03677 
-15.02674 13.89608 -15.34072 
23.72248 -13.65188 1.37328 
6.13312 5.10940 -7.34025 
-0.32856 10.36008 2.32955 
10.65856 8.77349 -19.95250 
11.86739 -4.25152 -12.64372 
16.42056 -16.48895 -9.62691 
-1.37819 18.98557 -21.47811 
-13.22697 16.55899 12.42215 
17.99189 -14.91112 16.22423 
6.62626 20.65708 -18.71875 
-12.32452 -21.87020 -2.01770 
0.60399 -10.01403 -24.27069 
-9.43102 17.65651 6.07647 
-6.92928 24.29641 -5.44725 
4.27898 -5.37384 -15.15448 
16.83564 -3.82208 -7.02270 
-11.67175 3.82108 9.53792 
15.23995 4.69997 3.46204 
-2.81240 22.91280 -6.82655 
-10.99621 11.63455 6.19288 
-2.87877 -10.26251 15.76569 
-4.71612 18.16819 -17.10230 
0.34523 0.40036 26.07199 
-11.46778 12.50089 -18.67206 
-0.61616 -22.48978 -19.32766 
-3.74515 25.12067 9.77045 
6.85523 15.43953 -21.65009 
3.96114 -16.83226 -10.00127 
-7.23400 8.90052 -4.66235 
8.61649 11.68803 21.35032 
4.66684 -6.59406 12.17437 
14.15744 9.67184 -15.42972 
-2.56040 -16.25713 12.51619 
-18.54951 -7.16752 -19.70112 
-15.76481 -14.39141 -18.82785 
19.43658 21.36994 -7.24516 
10.30335 -9.03528 -9.41890 
15.54831 -14.21970 -19.05372 
13.09262 -0.75876 12.85252 
-4.32884 -13.14960 8.69812 
-5.76441 26.55669 -8.92383 
4.85298 2.66098 -11.59885 
-18.73024 4.42807 18.60958 
-23.23632 -2.07680 5.64016 
-15.06469 16.21255 9.68099 
-19.34018 11.76682 13.76154 
23.59835 -10.56785 -0.12267 
-12.59296 5.34634 15.95679 
-23.39741 -15.24622 1.95341 
-5.12060 8.28270 -7.58953 
-24.78301 5.89282 -7.30950 
5.62462 4.87794 28.89887 
-1.16450 -22.06183 -6.57597 
-12.29752 -12.41351 -14.07943 
13.82926 -0.35374 -2.92957 
-4.51024 16.60288 -3.83278 
-9.92078 2.77937 21.92339 
-14.14106 -10.52506 10.46542 
12.56477 5.89993 26.58158 
21.17086 -7.32456 2.67441 
11.63534 7.20027 11.48557 
-16.54927 -15.24206 2.08093 
-21.86444 -11.91088 10.06404 
3.73661 -0.41825 14.09612 
2.98903 7.00700 -21.47834 
-3.11448 -6.12200 7.97089 
18.35618 -8.72178 -17.15961 
-0.96476 11.45774 16.52148 
-2.63514 -15.12604 16.53820 
4.62718 -28.27935 5.15435 
-3.00508 -3.45564 -20.47343 
-14.57494 3.82520 24.33541 
-16.57047 -18.91859 -1.16256 
5.47847 9.66469 25.69715 
-3.83510 -22.44344 16.63295 
3.43396 -10.50526 -13.65107 
-15.59972 -0.11850 10.99238 
7.73956 -1.16471 19.59322 
-1.72876 14.05532 2.10503 
5.93793 4.31775 5.20077 
17.14660 12.78879 -10.07032 
4.26278 -9.07277 3.75922 
-0.49555 21.80524 1.76908 
4.34258 -1.63982 -18.53436 
4.36391 -28.73858 -6.01871 
17.30845 -11.90483 -15.23033 
5.48869 -7.41579 22.02257 
8.90785 -8.76403 -15.24679 
19.07507 -2.90389 8.40035 
-2.73477 -13.55434 -6.28402 
-20.11662 5.18380 5.12181 
-18.59440 -5.39936 -20.67281 
-16.73430 5.75922 2.16388 
17.87797 -4.55437 -12.92179 
-9.25688 26.37195 6.74826 
-25.80511 -3.29159 9.42133 
4.40537 -23.93849 8.89282 
-5.32885 16.41389 16.71662 
21.55422 0.25234 -2.82612 
-22.86938 4.33666 -2.64200 
25.40615 -13.68690 -0.03316 
21.40332 1.97792 3.23107 
-7.59400 -25.73280 5.76792 
-0.39469 -8.59104 -18.94795 
-9.68887 -24.23133 2.42819 
-9.89878 -0.95394 21.97627 
-6.70756 5.45419 -23.33275 
20.41432 4.61259 -11.85958 
8.42460 -8.76320 21.88544 
-16.76797 -8.44527 -19.21820 
-17.48842 -7.09023 -14.47457 
-16.10830 -6.99491 -10.07851 
-21.75328 -5.03771 -7.90962 
12.70920 -5.99307 15.35633 
-5.68859 -5.22839 -27.75584 
26.57766 6.95142 11.91061 
-13.80426 4.32822 4.27939 
-3.22141 -13.98386 -4.60871 
14.55339 -6.41458 -9.16152 
-16.61603 4.63540 23.16452 
-1.41335 -19.56138 -7.53869 
23.01616 -12.31153 -10.34483 
-26.76379 -5.39025 -9.07338 
-8.69698 15.43524 2.35560 
-0.32664 -29.86788 0.26516 
3.02447 -2.83861 -13.89357 
15.28522 6.66619 -12.24641 
3.47507 -11.72947 -3.24203 
-6.86098 10.21628 -22.70460 
-14.97160 11.93856 -4.98210 
-7.56315 -22.43189 0.92073 
-2.95464 16.92737 -1.61644 
-4.08555 12.69814 -24.04490 
25.58078 10.75609 4.40189 
4.38678 -14.76663 9.25121 
-14.79005 -6.71088 -20.41445 
22.75380 6.06138 -10.23148 
-3.63436 21.82065 2.24474 
2.39955 2.75499 -10.83346 
5.96977 -10.23232 25.42885 
4.34559 -3.87053 -14.89498 
0.93992 19.35588 14.86208 
2.02155 3.69616 3.75426 
7.55982 2.64539 -16.43017 
-3.34754 -12.49211 -5.85059 
9.62922 20.80326 -2.48572 
-5.04881 2.65857 23.02096 
-25.54522 -13.23047 -0.51595 
-14.55737 0.16099 -10.07427 
22.54664 -10.98704 5.89892 
22.43180 17.94233 0.72320 
-4.72195 -17.35133 16.93424 
7.69184 -12.80362 -12.21980 
-12.96938 12.45243 4.28614 
-13.70137 5.12634 4.26505 
12.30555 19.25194 6.00511 
-23.88930 -13.06042 -3.33642 
15.14540 17.60077 12.23792 
1.69448 -14.38910 15.39052 
-12.02388 -10.31403 16.93693 
-6.35875 -3.02489 -13.22436 
20.30203 -1.56760 3.02947 
3.39523 -12.30193 16.43943 
15.04987 -16.64339 -6.12007 
-0.19732 13.89274 19.47860 
0.31701 8.94597 -14.38257 
-5.44198 6.48293 22.25369 
20.25715 2.39594 20.28614 
0.50226 -4.36622 28.42559 
10.34671 -9.20466 -3.31145 
9.29506 -6.87245 9.15859 
8.94056 1.33694 -0.01016 
7.26895 2.80485 2.52076 
-1.41755 -7.72619 -22.51363 
25.89306 -13.97290 -5.36113 
-16.15029 -12.38913 -6.43544 
-0.42706 -16.45211 -7.88406 
-5.80368 -8.71829 10.70370 
17.46322 11.37733 15.88294 
-0.25512 -4.34261 -15.08953 
0.06365 -23.04522 -10.35140 
26.38170 9.05402 4.19243 
-5.65005 18.86338 13.82748 
-4.24587 12.58803 -5.78316 
23.64356 9.60967 13.25224 
-21.02214 3.43098 19.48299 
20.27748 0.82620 21.97192 
-8.67825 -8.66282 27.30123 
23.84196 2.16829 -13.02915 
-5.77270 -6.88100 24.94163 
-3.70421 10.16965 2.76677 
-7.35875 9.96092 -24.43006 
-19.65685 -20.20924 2.82422 
-6.76560 -0.51716 -23.86489 
-2.15531 -2.89434 -6.21675 
25.34038 6.47801 6.27484 
-18.37129 -10.17324 16.94428 
15.25727 18.10450 -1.84388 
-16.83348 -0.47934 -13.94822 
11.27482 10.45281 -4.29558 
-6.74449 24.86766 10.90944 
14.53571 15.86667 7.31533 
-17.92148 -7.46862 -9.97338 
19.72916 -10.64641 -12.18010 
18.77066 -2.20228 11.20714 
-0.83273 13.53546 23.81674 
-4.48309 -18.78921 15.79800 
4.59347 5.94950 17.32151 
-8.57350 3.13887 -17.17912 
-19.95166 20.54185 -5.17034 
0.02998 19.62550 -3.61866 
10.64646 7.78002 -15.39269 
-1.07758 8.69939 21.75806 
[...]
CELL_DATA 2734
SCALARS Fiber_Strain double 
LOOKUP_TABLE default 
-0.00013
-0.00080
0.00004
0.00003
0.00377
0.00167
0.00014
-0.00019
0.00012
-0.00618
-0.00907
-0.00807
0.00004
-0.00004
-0.00070
-0.00008
-0.00006
0.00112
-0.00009
0.00002
-0.00125
-0.00002
-0.00000
-0.00008
-0.00075
0.00082
0.00002
0.00133
-0.00013
0.00020
-0.00028
-0.00857
0.00014
-0.00013
0.00005
0.01251
0.00027
0.00309
0.00052
0.00103
-0.01094
-0.00028
0.00002
-0.00018
0.00007
-0.00030
0.00824
-0.00015
0.00892
0.00002
0.00024
0.00003
0.00009
0.00002
-0.00020
-0.00000
0.04679
-0.00004
-0.00012
-0.00081
0.00711
0.02010
-0.00010
-0.00236
0.00143
0.00172
0.00074
0.00221
-0.00154
-0.00203
0.01297
0.00079
-0.00027
-0.00029
-0.01442
-0.01929
0.00008
-0.00076
-0.00009
-0.13586
-0.00108
0.00003
0.00007
-0.03002
-0.01113
0.00014
-0.03214
-0.00330
-0.00532
0.00001
0.00175
0.03007
-0.00280
0.00467
-0.01456
-0.00352
0.00018
-0.00444
-0.00070
0.00356
-0.03739
0.00031
-0.00001
-0.01558
-0.16933
0.00046
0.00004
-0.02199
-0.01302
0.00029
-0.01769
-0.00089
-0.00093
0.00008
-0.00637
-0.00040
-0.00040
-0.01841
0.02114
0.00007
0.00014
0.00798
0.03407
-0.02295
0.00024
-0.00001
-0.01652
0.03472
0.00091
-0.00167
-0.04829
0.00006
0.00044
0.00954
-0.00236
0.00025
-0.00038
0.00020
0.00026
-0.00204
0.00057
0.00026
-0.00223
0.00101
-0.00087
-0.00041
0.00011
0.00253
0.00022
0.00009
-0.00757
-0.02506
0.00014
0.00010
0.07777
0.00021
0.00014
-0.06158
-0.00400
-0.00068
0.00276
0.00006
-0.00232
-0.00018
-0.08116
-0.00151
0.00038
-0.00059
0.00371
-0.00463
-0.06673
0.00254
-0.04038
-0.00726
-0.00022
0.00001
0.00069
0.00576
-0.00173
-0.00056
0.00008
-0.00433
-0.00915
-0.02368
-0.05163
0.00001
-0.00064
-0.00008
-0.01079
-0.00166
-0.00014
-0.00008
-0.00128
-0.00104
0.00028
0.00139
-0.01132
-0.00332
-0.00048
0.00185
0.00844
0.08026
0.00034
-0.11520
0.00015
-0.00378
0.01057
0.00272
-0.02551
0.01706
-0.09521
0.04624
-0.00496
0.00494
-0.01903
-0.00087
-0.00083
0.00342
0.00015
-0.02826
0.00188
-0.00365
-0.00092
-0.02686
-0.10528
-0.00657
-0.00144
-0.00055
0.00266
0.00039
0.00123
0.00135
0.00911
-0.00288
0.00077
0.00329
0.00004
0.00123
-0.00333
0.00614
0.02152
-0.00008
0.00090
0.00972
-0.00053
-0.00093
0.00018
0.00006
-0.00005
0.00020
-0.00033
-0.00085
0.00004
0.03225
0.01929
-0.00540
0.00002
0.00709
-0.00039
0.00002
0.00015
0.01147
-0.00011
-0.00827
0.00108
0.14473
-0.12276
0.00070
-0.00178
0.01817
0.00009
-0.00151
-0.00006
0.00020
-0.00331
0.00131
-0.00001
0.00013
-0.00019
0.00098
0.00198
-0.00000
-0.00245
0.01102
0.00275
-0.00416
0.00049
-0.02048
-0.00036
-0.00937
-0.00036
-0.00038
-0.01762
-0.00016
0.00212
0.00001
0.00025
-0.00204
0.00007
-0.00004
-0.00303
0.06278
-0.20895
0.00071
-0.03780
-0.00515
-0.00112
0.00004
0.00006
-0.00540
-0.00026
-0.00065
-0.00026
-0.00294
-0.00577
0.00001
0.00324
0.00267
0.00000
-0.00430
0.00253
0.00001
0.00082
0.00002
-0.00254
0.00001
0.10157
-0.00004
0.00031
0.00027
0.00902
-0.00049
0.00022
-0.00213
-0.00074
0.00006
-0.00206
-0.00669
-0.06124
-0.00492
0.00005
-0.03735
-0.02190
0.01336
-0.00648
-0.00041
0.00012
-0.07304
-0.08018
-0.00707
0.00017
-0.00100
-0.00030
0.00063
-0.01051
0.00426
-0.00013
-0.00252
-0.00002
-0.00524
-0.01731
0.00001
0.00002
0.00003
-0.00773
-0.02133
0.00049
-0.00007
-0.00023
-0.00006
-0.00004
-0.05506
-0.00091
-0.00041
-0.00687
-0.00002
0.00615
0.00045
-0.00000
-0.00501
-0.03604
-0.03517
-0.00059
-0.00007
-0.02060
0.00020
0.00916
0.01590
-0.00534
0.00001
0.00017
-0.00220
0.00022
-0.01373
-0.00001
0.00010
-0.01069
0.00043
-0.00014
0.00856
0.00220
-0.00044
-0.00442
0.02261
-0.10329
-0.10569
0.11006
0.00054
0.00007
0.00688
0.01098
-0.00382
-0.00940
0.00310
-0.00927
0.00138
-0.01209
-0.00004
0.00039
-0.02117
-0.00743
0.01332
-0.00013
0.02836
-0.00164
0.00190
-0.13565
0.03493
0.03151
-0.00166
0.03096
0.00015
0.00009
0.00034
0.00016
-0.00011
0.03729
-0.00308
-0.00037
-0.01024
-0.00057
0.02665
-0.01107
0.00144
-0.00030
-0.00502
0.00038
-0.00065
0.00183
-0.00053
-0.02646
-0.01347
-0.00016
-0.00453
-0.01164
0.00776
0.01479
0.00005
-0.00012
-0.00237
-0.00019
-0.00040
-0.00053
0.00024
0.02480
-0.00255
0.00002
-0.00719
0.00004
0.00250
0.00107
0.00041
0.00057
-0.01503
0.00001
0.05187
-0.00415
-0.00029
-0.01443
0.00245
-0.00221
-0.00056
-0.00716
0.00035
0.00021
0.00002
0.00025
-0.00011
-0.00639
0.00879
-0.01596
-0.01634
-0.00157
-0.00186
0.02393
-0.00006
-0.00001
-0.00144
0.00002
0.00131
-0.00018
0.00025
0.00013
0.00023
0.01763
0.01113
-0.00001
-0.00918
0.04431
0.01802
-0.02664
-0.00868
0.00010
-0.00027
0.00058
-0.00362
-0.00027
-0.00007
0.00155
-0.04068
0.00760
-0.08849
-0.00055
0.00002
0.00476
-0.05265
-0.00061
0.02228
-0.00207
-0.00554
-0.00017
0.00382
0.00002
-0.00096
0.00026
-0.00598
-0.00021
0.01399
-0.00059
0.01341
-0.00358
0.00151
0.01949
-0.00053
0.02215
-0.00185
-0.00205
0.03683
0.00687
0.00093
0.00083
-0.00010
-0.09138
-0.00088
0.00728
-0.00949
0.00603
-0.01367
-0.00065
0.00234
-0.00004
-0.00114
0.03817
-0.00036
0.00029
0.00009
-0.00016
0.00050
0.00057
-0.00155
-0.00044
-0.07390
0.00144
0.00118
0.05364
-0.01034
0.00457
0.05391
0.00000
0.01907
0.01568
-0.01538
0.00083
-0.00114
-0.01367
0.11918
-0.00152
0.00463
-0.00002
-0.00093
-0.04508
-0.00171
0.00058
-0.00038
0.00295
0.00145
0.00009
-0.00008
0.00286
0.01679
-0.00278
0.00698
-0.00065
-0.00773
-0.00031
0.00600
0.00750
0.00717
-0.01953
-0.00017
0.00667
0.00467
-0.00043
-0.05072
0.00008
0.00013
0.00014
-0.00021
-0.00027
0.00033
-0.00005
0.00005
0.00000
0.01359
0.00036
0.03912
-0.01085
-0.00098
0.00826
0.00771
0.00021
-0.00157
0.02477
0.00028
0.00938
-0.00071
0.00238
0.00295
-0.00039
0.01529
-0.00003
0.00260
-0.00002
-0.00030
0.00721
-0.01653
-0.00030
-0.02322
0.03815
0.00023
-0.03560
0.00008
-0.00021
-0.13187
-0.00003
0.00204
-0.00159
0.00015
-0.04971
-0.00248
0.00005
0.00527
0.00004
-0.01663
-0.00802
0.02198
-0.00022
0.05674
-0.00075
-0.00023
-0.00001
0.00107
0.01926
0.02090
-0.00001
0.00063
0.01829
0.00266
-0.00031
0.01137
0.00191
0.00060
-0.00891
-0.00121
0.00044
0.08228
-0.00070
0.00006
-0.00014
-0.00018
-0.00009
-0.00532
-0.00332
-0.00611
-0.00011
0.00046
-0.00003
-0.00096
-0.00017
-0.00028
0.00128
-0.00545
0.00030
-0.00468
-0.01097
0.00002
-0.00021
-0.01201
-0.00009
-0.00005
0.00365
0.00012
0.01134
0.00629
0.00367
0.00015
0.04473
-0.00386
-0.00087
0.00078
-0.00129
-0.02429
0.01513
0.08626
0.00439
0.03843
0.00025
0.00513
0.00569
-0.04879
0.00003
0.00093
-0.00896
0.00008
-0.02183
-0.00006
-0.00016
-0.00640
-0.00065
0.00111
0.00040
-0.00181
0.00141
-0.00192
-0.00040
-0.00007
-0.02826
-0.00001
-0.02439
-0.00005
0.00488
-0.01814
0.00252
-0.00094
-0.00003
0.00455
0.00001
0.00338
0.00148
-0.00005
-0.05655
0.00077
0.01388
-0.00073
0.01350
0.00006
0.00001
-0.00129
0.00025
0.00576
0.00022
0.00936
0.00295
0.00522
-0.00004
0.00020
-0.00035
0.00011
0.00587
-0.00009
0.00222
0.01606
-0.00225
-0.00860
0.00473
-0.00012
0.00718
-0.00054
-0.00011
-0.01988
0.01846
-0.00066
0.03256
0.00038
-0.00092
0.00073
-0.04005
-0.00803
0.02655
-0.00544
-0.00006
-0.00010
-0.00706
0.00018
-0.00252
-0.00007
0.00325
0.00013
-0.00020
-0.00276
0.00002
0.00045
-0.00079
0.00058
-0.00112
-0.00027
-0.00878
-0.00018
-0.00024
-0.00064
-0.00053
-0.00114
0.00002
-0.00109
-0.00018
0.00046
-0.01479
-0.00002
-0.03191
0.00099
0.00267
-0.00016
0.00068
0.00139
-0.00073
-0.00089
-0.00003
0.00018
-0.00004
-0.00071
0.00115
-0.00011
-0.00003
-0.00041
-0.00002
0.05329
0.00091
-0.00214
0.00003
-0.00080
-0.02497
0.00228
-0.01370
-0.00008
0.00012
-0.02841
0.00003
0.01302
0.00003
-0.00037
0.02672
-0.00002
0.00226
-0.00105
-0.05582
0.00012
0.00163
0.00860
0.00357
0.00010
-0.00882
-0.00405
-0.00606
-0.00860
0.00082
0.00479
0.00043
0.01721
-0.00076
-0.00050
-0.00004
-0.00319
-0.00011
0.00362
0.00054
-0.00012
0.00003
0.00175
0.00506
0.00015
-0.00016
-0.02708
0.00030
-0.02445
0.00023
-0.00013
0.00028
-0.00189
0.00004
0.00004
-0.00103
-0.00338
-0.02516
0.00365
-0.00384
-0.00022
0.00257
0.00027
-0.00005
-0.00935
0.01455
0.09274
-0.00004
-0.03400
0.00008
-0.00492
-0.00011
0.00009
-0.00022
0.00014
-0.00085
0.00010
0.00012
0.00681
0.00201
-0.01503
0.00094
0.00026
0.01033
0.00003
0.00045
-0.06665
-0.00250
-0.01649
0.00761
-0.00044
-0.00259
0.00372
-0.01171
-0.00033
0.00074
0.00003
0.00036
0.00183
0.05020
0.00078
0.00139
0.00791
-0.00001
0.00330
0.00034
0.00023
-0.00007
0.00033
-0.01121
-0.00000
-0.00114
0.00218
-0.00006
0.00004
0.00025
-0.00310
-0.02304
0.00335
-0.00020
-0.01025
-0.00044
-0.00464
-0.00402
-0.00255
-0.00039
-0.00026
0.00005
0.00318
0.00061
0.00010
0.00028
0.00012
0.02288
-0.00080
0.00455
0.00936
0.00002
0.04889
-0.07105
-0.00226
0.01926
-0.00138
-0.00261
0.00041
0.00015
0.00063
-0.00000
-0.01065
-0.00923
-0.00080
0.00021
0.00073
-0.00368
-0.00784
0.00725
0.00013
0.00149
0.00015
-0.00493
-0.00065
0.00656
0.00241
0.00211
-0.00108
-0.00310
0.00289
0.00013
-0.00095
-0.02442
0.00283
0.00001
0.00070
-0.00001
-0.00001
0.00017
0.00063
-0.05525
0.00074
-0.00149
-0.00054
0.00325
0.00022
0.00031
-0.01459
-0.00193
-0.00310
-0.00026
-0.00272
-0.00540
0.00098
-0.00522
-0.00012
-0.00021
0.00002
-0.00400
-0.00702
0.00536
0.00006
0.00279
0.00031
0.00819
-0.00004
0.00017
0.02634
-0.05235
0.00015
0.00330
0.00148
-0.00183
-0.00186
-0.00626
0.03591
0.00296
0.00055
-0.01207
0.00028
-0.00010
0.00116
-0.00491
-0.00022
0.05359
-0.06108
-0.00739
0.00246
-0.00003
-0.00003
-0.00089
-0.00038
0.00359
-0.00003
0.00020
0.00027
0.00049
0.00034
0.00034
-0.05637
0.00811
-0.00008
-0.00028
0.00032
-0.00012
0.00136
-0.00057
0.00072
0.00023
-0.00198
-0.00002
-0.00001
0.00073
0.00016
-0.00053
0.03281
0.00004
0.00002
0.00034
0.00002
-0.00192
-0.00017
-0.00004
-0.00011
0.00679
-0.00125
0.00375
-0.00244
-0.00765
-0.00020
0.04213
-0.00358
0.00008
-0.00310
0.04100
-0.00164
-0.00018
-0.00034
0.00182
0.00008
0.00547
0.08103
0.00027
0.00084
-0.00282
-0.00040
0.00000
0.00032
0.00003
0.00119
0.00847
-0.01895
-0.00875
-0.00041
-0.00047
-0.09518
-0.00465
-0.03135
0.00016
-0.00005
0.00009
-0.00035
-0.00279
-0.00126
0.00556
-0.00003
-0.00001
-0.04828
0.03395
-0.00150
-0.00018
0.00302
0.00171
0.02498
-0.00365
0.00167
-0.00002
-0.01066
0.00000
-0.01826
0.00100
0.00412
-0.00004
0.01616
0.00734
-0.00028
0.00027
0.00003
0.00619
0.00045
-0.00025
-0.00806
-0.00600
-0.00305
-0.01576
-0.00188
0.00025
-0.00036
0.00022
-0.00137
0.00282
0.00019
0.00095
-0.00249
-0.00010
-0.00055
-0.00005
0.00412
-0.00054
0.00061
0.00748
-0.00038
-0.00015
0.00053
-0.03638
-0.00168
0.00012
-0.00344
-0.00081
-0.00074
0.39290
0.00031
-0.06521
0.00877
-0.00012
0.02458
0.00002
-0.00213
-0.00118
-0.00962
0.00115
-0.00237
0.00335
-0.00103
0.00010
0.00304
-0.01991
0.00006
-0.01053
-0.00161
0.00001
0.00013
0.00104
-0.00073
0.00709
0.01269
-0.00144
0.00094
0.00261
-0.00415
-0.02336
-0.00562
-0.00010
-0.00006
0.04327
-0.01003
-0.00062
0.01561
0.00147
0.00019
-0.00012
0.00149
0.00402
-0.04043
-0.00085
0.00597
-0.00009
-0.00127
0.01243
-0.05880
0.00065
-0.00072
-0.00004
-0.01165
-0.00661
-0.00226
0.00101
0.00043
0.00026
-0.00855
0.04139
0.00001
0.00070
-0.00059
-0.00327
-0.00076
0.00057
-0.00188
-0.00014
-0.00009
0.00009
0.00021
-0.00011
-0.00216
0.00088
0.00015
-0.00007
0.00005
0.00504
0.00005
0.00071
0.02402
-0.00196
-0.00727
0.01940
0.00052
-0.00027
0.00006
-0.00664
-0.00023
-0.00276
-0.00049
0.00004
0.05044
-0.00006
-0.00477
0.00141
0.03777
-0.00133
-0.00022
0.00030
0.00003
0.00009
0.00000
0.00501
0.00182
-0.00390
-0.00109
-0.02074
-0.00012
0.00125
0.03967
-0.00007
-0.00029
0.00229
0.00002
0.01885
0.04850
0.00108
0.03156
0.00248
-0.03727
-0.00001
0.00207
0.00278
0.00053
0.00048
0.00042
0.00061
-0.00006
0.01532
0.01239
-0.00292
-0.03175
0.00009
-0.00003
0.00036
0.00715
0.00326
0.00017
0.00013
-0.00713
-0.01686
-0.01137
0.00006
0.00087
-0.00736
-0.00004
-0.00495
-0.00106
0.00334
-0.07600
0.00001
-0.00013
0.00054
-0.00093
0.00210
0.00095
-0.00011
-0.00459
-0.00008
-0.00447
0.00723
-0.00008
0.00089
0.01032
-0.00315
0.00077
0.00072
-0.00003
0.00000
-0.00362
-0.00036
-0.01236
-0.00024
-0.01725
-0.00140
0.00377
0.00035
-0.00080
-0.01383
0.00049
0.00089
-0.00001
-0.00008
0.01492
0.02032
-0.00002
-0.01941
0.00002
0.00006
0.00435
-0.00005
-0.00015
0.00033
0.01684
-0.00002
0.00652
-0.00025
-0.00004
0.00031
-0.00023
-0.00072
-0.00064
-0.00178
-0.00103
-0.06838
-0.00115
0.00085
0.00096
0.01421
-0.00225
-0.00761
0.00031
0.00299
-0.01336
-0.02142
-0.01070
0.00012
-0.10750
0.00210
-0.00014
-0.00015
-0.00855
-0.00531
-0.02138
0.00330
0.00103
0.00143
-0.00890
-0.02634
0.00177
0.00126
0.00161
-0.01824
0.00092
-0.00160
0.00013
-0.00001
0.00060
0.00003
0.02513
-0.00073
-0.00019
-0.00038
0.01026
-0.00161
-0.00004
-0.01515
0.00189
-0.00155
-0.03334
-0.00044
-0.00056
-0.00066
-0.00047
0.00047
0.00180
-0.00365
0.00455
-0.00044
0.00005
-0.01169
-0.00126
-0.00996
0.00027
-0.00021
-0.00119
-0.00097
0.00010
0.00732
-0.01516
-0.00491
-0.00020
-0.00951
-0.00007
-0.01702
0.00017
-0.00016
-0.00027
-0.02146
-0.00018
0.00104
-0.00020
0.00013
-0.00004
0.00029
-0.00105
0.00041
-0.00028
-0.00634
-0.00014
-0.00155
-0.00011
0.00003
-0.02680
0.00087
0.00009
-0.00030
0.00010
0.00267
0.00059
0.00001
-0.03582
0.00541
0.00461
0.00030
0.01349
0.00138
0.00031
0.04485
0.06128
0.00002
0.00005
0.00470
-0.00007
-0.02494
-0.00067
0.00173
-0.01619
-0.00074
-0.00112
0.00126
-0.01206
-0.00450
-0.00760
0.00756
-0.01646
-0.00022
-0.00002
-0.00002
-0.00034
-0.00075
-0.00178
-0.00145
0.00009
0.00000
0.00001
0.00003
-0.00280
-0.01416
-0.00005
0.00264
0.02111
-0.00063
-0.02130
0.00054
-0.00017
0.00034
0.00096
-0.00154
-0.00160
-0.00412
0.00030
-0.06572
-0.00047
0.00003
-0.00465
0.00445
-0.00006
0.19748
-0.00072
-0.00226
-0.00891
0.00028
-0.00006
0.00033
0.00914
0.02601
0.00103
0.00148
-0.00019
-0.00343
0.00267
0.00182
0.00121
-0.00232
0.00078
-0.01889
0.00015
-0.00023
-0.00335
-0.00014
-0.07010
-0.05072
0.00000
0.00068
-0.00062
0.01165
-0.02540
0.00072
-0.08645
0.00127
0.00641
-0.00003
-0.01314
-0.00573
-0.00009
-0.00071
0.00038
-0.00070
0.00011
-0.00023
-0.04862
0.00008
-0.00003
-0.00010
-0.01140
0.00032
-0.00039
-0.00044
-0.00011
-0.00035
0.00042
0.00016
0.00015
-0.00017
0.00860
-0.02109
-0.00124
-0.00040
0.00271
-0.04566
0.01513
0.03553
0.00020
0.02807
-0.00083
0.00298
-0.01389
-0.00110
0.02026
0.00004
-0.12436
-0.00027
-0.00082
-0.01566
-0.07827
0.00015
-0.00003
-0.01351
-0.00043
0.00075
0.01240
-0.00094
0.00062
0.00341
-0.00023
0.00001
0.00032
-0.01501
0.00143
0.01046
0.00213
0.04126
0.00068
-0.00041
0.00008
-0.02229
0.01171
-0.00617
0.00026
0.00241
-0.00028
0.00351
-0.00523
-0.00826
-0.00195
-0.00706
0.00271
-0.00267
0.00026
-0.00003
-0.19654
-0.01177
0.00369
0.01228
0.00151
0.00022
-0.04854
-0.00034
0.00176
0.02104
-0.07090
0.00013
0.00064
-0.00075
0.00010
0.00003
0.00739
0.00242
-0.04500
0.00146
0.00684
0.01475
-0.01731
0.00072
0.00000
0.00171
-0.00051
0.00011
0.00012
-0.00002
-0.00091
0.00129
-0.00209
0.00233
-0.01522
-0.01553
0.00400
0.00011
-0.00012
-0.00313
0.00001
0.02094
-0.00044
-0.00023
0.02323
-0.00187
0.00270
-0.00024
-0.00002
0.00068
0.00005
0.00232
-0.00396
-0.00339
0.00295
0.00001
0.00072
0.00015
0.00150
0.00037
-0.01071
0.00088
-0.00432
0.00010
0.00201
0.00402
0.00051
0.01943
0.00028
-0.00044
0.00031
-0.00028
0.00699
0.01106
0.00155
0.00029
-0.00510
-0.00352
0.00005
0.00116
0.00144
0.04967
0.00312
0.03911
-0.00035
0.00025
0.00417
0.00038
0.00019
-0.00018
0.00003
-0.00002
-0.00924
0.01668
0.00129
-0.00001
0.00039
-0.00036
-0.00153
0.00015
-0.02361
0.00009
0.00027
0.00011
-0.00465
-0.00304
-0.00029
0.00009
0.00535
0.00916
0.00087
0.03589
0.00030
-0.00000
-0.00559
-0.01133
0.00002
0.00176
0.00194
0.00090
-0.00011
-0.00196
0.00323
0.00080
-0.00098
-0.02726
-0.00714
0.00005
0.00002
0.00623
-0.00210
0.00016
0.00041
0.00001
-0.00003
-0.00111
0.00169
-0.00008
-0.00063
-0.00044
0.03232
0.00011
0.00021
-0.02601
0.00091
0.00153
0.00409
-0.04176
0.00024
0.00574
-0.00484
0.00003
-0.03102
0.00232
-0.00031
0.01321
0.00324
-0.00062
-0.00274
-0.00003
-0.00002
-0.00005
-0.00062
-0.00054
0.00402
0.00000
0.00068
0.00017
-0.00187
0.00066
-0.00004
-0.00029
-0.00001
-0.00040
0.00086
0.00008
-0.00104
-0.01494
-0.00034
0.00141
-0.00038
0.00111
0.04615
0.00062
0.00393
0.00048
0.00082
-0.00254
-0.00019
0.00064
0.00030
0.02458
-0.00025
0.00016
0.01063
0.00876
-0.15662
0.00047
0.00021
-0.00004
-0.02139
-0.00006
0.00047
0.00006
0.00029
0.00161
-0.00299
0.08828
0.01187
-0.00228
-0.00051
0.00001
0.00103
-0.00594
-0.00007
0.00185
-0.00039
-0.01317
0.00017
-0.00003
-0.00273
-0.00991
-0.00021
-0.00146
-0.00003
0.00003
-0.01228
-0.00001
0.00012
0.00533
-0.02998
0.00288
0.00010
0.00395
-0.00047
0.01991
-0.00534
0.00010
-0.01501
-0.00026
-0.00073
0.00050
-0.00065
-0.00001
0.00060
0.00004
0.00224
-0.00191
-0.00076
-0.00003
-0.00643
-0.00040
-0.00445
0.01664
0.02018
-0.00113
-0.00006
-0.00275
-0.00722
0.01562
-0.00944
0.01126
0.00852
0.00009
0.00351
-0.00060
0.00599
-0.01959
0.00026
-0.00005
0.00198
-0.03303
0.01248
0.00022
0.00008
-0.00440
0.00003
-0.00391
-0.00037
-0.00019
0.02566
0.00047
0.00004
-0.00006
-0.05204
0.00100
0.00532
0.01923
0.00019
-0.00121
0.00013
0.00644
-0.00195
0.00511
0.00205
-0.00072
-0.00033
-0.01030
0.00139
0.00410
-0.00446
0.00297
-0.03542
-0.00011
-0.00395
-0.00248
-0.00726
0.00067
-0.00014
-0.00043
0.00150
-0.00007
-0.00003
-0.00006
-0.00095
0.00461
-0.00081
-0.00010
0.00277
0.00559
-0.08346
0.00023
-0.00027
-0.00007
0.01822
-0.00094
0.00351
0.00041
0.00044
-0.00552
-0.00808
0.00031
0.00004
0.03223
0.02485
-0.00350
0.00072
-0.00038
0.00784
-0.00029
0.00044
0.00648
-0.00090
-0.00006
-0.00398
0.00283
0.00011
0.00787
-0.00004
0.00655
0.00008
0.00091
0.01402
-0.00359
-0.00080
0.05306
-0.02122
-0.00044
-0.00019
-0.00853
0.00090
-0.00004
0.00001
-0.02234
-0.00047
-0.04042
0.00010
-0.03812
-0.00057
0.04589
-0.00195
0.00641
0.00073
-0.01852
0.02680
0.00218
-0.00218
0.00276
-0.00685
0.03537
-0.00228
0.00209
0.00129
-0.00171
0.00014
-0.03106
0.00926
-0.06348
-0.00056
-0.00004
-0.13231
-0.01157
0.00006
0.00006
0.00055
0.00168
0.00027
-0.00065
-0.00023
-0.00024
0.00825
-0.00002
0.00016
-0.00003
-0.00079
-0.00034
-0.00143
-0.00017
0.00012
0.02497
0.00003
0.07062
0.00380
0.02865
-0.00001
-0.00335
0.00011
0.00069
-0.00031
-0.00491
0.00056
-0.00009
0.00225
0.01484
0.02818
0.01352
0.00682
0.00471
0.00112
0.00039
0.00156
-0.05694
-0.00863
-0.00051
0.00021
-0.00005
0.06976
0.00050
-0.00000
-0.00002
0.00052
0.00044
-0.02342
-0.00032
0.01540
-0.00244
0.00019
0.00114
-0.00484
0.00021
-0.00089
0.01070
-0.00229
-0.00026
-0.00943
0.00433
-0.01046
0.05499
0.00008
-0.00013
0.01980
0.01503
0.00047
0.00031
0.00001
-0.00041
0.00003
-0.00049
-0.03178
-0.00923
0.01557
-0.05442
0.00028
-0.00056
0.00916
-0.00111
0.00031
0.04305
-0.00015
-0.00179
0.00092
0.05346
0.00007
-0.00064
0.00005
0.00057
-0.00774
-0.01327
0.00276
-0.05574
0.00003
0.00060
0.00045
-0.00019
0.01725
-0.00854
0.00125
0.00037
-0.00017
0.00021
0.02311
0.00049
-0.00438
0.01541
0.01053
0.00197
0.00197
0.00173
-0.00887
-0.00275
0.00011
0.00531
0.02402
0.00183
-0.00088
-0.00183
0.01281
-0.00000
-0.00002
0.00094
-0.01611
0.00000
0.00007
-0.00257
-0.02330
0.00021
-0.00001
-0.00003
0.00015
-0.00093
-0.00180
0.00007
0.00004
-0.01553
-0.00035
0.00492
0.00733
-0.00001
-0.00537
-0.00148
0.00068
0.00010
0.00999
-0.00013
-0.00843
-0.01684
0.00098
0.00006
0.00002
0.01127
-0.02531
-0.01643
0.00349
0.00125
-0.00021
0.00009
0.02340
-0.00040
-0.00001
-0.00109
-0.00038
-0.00478
-0.00008
0.13046
-0.00744
0.00425
-0.00015
0.04971
0.00557
-0.00260
0.00510
-0.00008
0.00026
-0.00849
-0.00003
0.00580
-0.04131
0.00334
-0.00055
-0.00019
0.00948
-0.00474
0.00185
0.00168
0.00085
-0.00873
-0.00008
-0.00009
0.02412
-0.00018
0.00008
-0.00005
-0.00012
0.00291
0.00004
0.00134
-0.00018
-0.00003
-0.00003
0.00006
-0.00016
-0.00074
0.00040
0.00019
-0.00014
-0.00031
-0.00210
0.01808
0.00638
0.00100
-0.00010
-0.00008
0.02782
0.00049
-0.04777
-0.00004
-0.00007
0.05998
0.01265
-0.00031
-0.00805
-0.03990
0.00012
-0.01360
-0.00024
-0.00160
0.00007
0.00307
-0.00253
-0.00285
-0.02244
-0.00094
0.00028
0.00001
0.00012
0.00013
-0.00000
-0.00086
0.00030
-0.00005
-0.00428
-0.01608
-0.00062
-0.00237
-0.00172
-0.00042
0.00037
0.01287
0.00351
-0.01225
-0.00009
0.05678
-0.00040
-0.00172
0.00353
-0.00020
-0.00335
-0.00006
0.00020
0.00049
-0.00004
0.00158
-0.00950
0.00220
-0.00050
0.00491
-0.00133