# vtk DataFile Version 3.0
Point representing Sub_cellular elem model
ASCII

DATASET UNSTRUCTURED_GRID
POINTS 1336 float
2.28260 -22.98537 0.42665 
-20.92474 5.46048 -6.42650 
-10.90550 14.33782 -10.79688 
15.40113 23.42100 -3.32652 
12.86225 -6.15823 5.34036 
-11.14566 -11.66606 24.47369 
-12.54436 -21.85666 -6.89473 
-17.35857 -10.14746 -0.10709 
19.11302 -15.37659 6.03481 
-1.64682 10.98148 -16.23811 
11.45643 4.68251 4.26698 
-20.14644 -12.97532 -2.20796 
-9.18638 -8.63884 -5.39084 
13.27135 11.67089 19.68110 
-1.44444 -22.43750 4.16726 
-2.49704 -20.12892 -11.78022 
-4.81965 -2.39724 -27.04546 
1.59033 0.39152 24.39440 
25.26213 8.59520 2.15181 
-3.13180 -20.72990 16.65588 
13.01136 0.52006 5.09359 
-6.23252 5.95319 13.44761 
13.37699 0.65569 10.50487 
13.75287 3.25900 -21.41117 
-0.65267 10.65474 -11.62162 
9.69655 -2.53985 -21.67190 
15.14500 -19.94608 -0.33909 
-17.03356 11.62029 -19.15884 
-2.17943 -23.11287 3.63705 
17.99634 -1.80958 7.04484 
16.42097 -3.71324 -12.60145 
-13.92885 -10.46043 -20.25284 
3.37393 17.16752 6.82918 
-16.30870 21.39579 0.39759 
16.69451 7.46997 1.59775 
-0.10359 -7.41679 -9.88404 
-12.83617 -21.87997 1.47506 
21.17444 -1.48260 1.84198 
13.79502 5.16166 -19.62496 
-19.37367 -5.42203 -8.57870 
15.71260 6.68332 7.12600 
3.35443 -7.40668 -6.80744 
-8.92085 9.68170 8.48738 
6.83875 1.67159 -11.46087 
-23.70806 -1.82571 6.43672 
22.54748 -6.11801 12.14723 
-7.87239 19.57887 -2.03364 
5.88682 -3.89051 19.03161 
-26.65751 2.78630 -11.90717 
10.84912 21.29248 11.38800 
-1.93324 17.64783 -20.98648 
16.72225 9.53044 1.78943 
-8.16128 7.39099 -25.89688 
2.90443 3.08677 8.13045 
19.81392 -20.98528 0.38411 
26.86862 2.68401 3.44205 
13.55690 17.13415 3.67096 
-6.56632 -14.45810 3.34828 
-18.59434 -2.02649 1.32330 
-13.76648 -3.16873 -23.76230 
6.61465 -18.05616 -19.16268 
0.61802 -6.67081 -25.04206 
-9.52209 7.90339 10.08320 
-1.70088 -25.54202 3.32487 
9.62159 22.25168 -10.45389 
-3.56016 -3.10338 27.85781 
13.42351 15.18797 13.71665 
11.44785 23.23051 -7.41175 
4.11451 24.84250 8.75387 
25.76223 4.88610 4.63853 
14.35740 9.83880 10.89421 
11.89573 19.57674 -7.05021 
0.58053 -22.63041 -12.27141 
19.30259 6.46905 12.84304 
-22.56102 -15.11155 3.29503 
-18.84849 -1.30825 12.93620 
-18.41946 19.37317 4.29266 
-19.22070 -17.36879 -0.00104 
3.07798 12.30978 13.48513 
7.75785 14.68552 -20.47844 
8.75619 0.56329 -24.41785 
-8.50198 -8.55382 -2.48226 
17.72050 -8.94660 6.21812 
3.40740 -24.80498 7.42408 
16.65789 -6.65264 -17.09682 
-4.65562 -20.03428 11.16729 
13.89057 4.20124 -17.82782 
5.81305 19.35188 15.71363 
12.81687 20.19827 -6.65418 
-2.71838 7.57689 -11.92874 
-14.97977 3.22394 -12.55531 
-16.06805 16.50284 -17.62604 
-7.56801 -2.16203 7.42045 
14.75888 16.40340 -15.61463 
-12.34661 9.19166 -20.20316 
-0.99290 -22.50692 -5.61501 
5.61650 -11.12146 -24.15372 
17.13700 23.84554 1.52108 
3.10262 3.25497 -6.39260 
-27.17206 1.91740 0.63497 
-25.80714 -3.16496 -4.10850 
8.70155 -21.29294 5.80895 
20.28252 8.58169 10.93381 
-6.61581 21.65314 -11.59433 
1.63346 -19.01397 -10.14127 
7.15985 2.12452 25.11536 
-0.57612 -9.61372 -24.18285 
-15.89985 -12.05293 15.87851 
-5.55765 23.11326 9.93407 
-7.45932 1.55978 -6.97298 
2.17955 -7.05973 -9.22709 
8.80929 -3.20152 24.98982 
11.41586 -17.41337 -20.63841 
-11.76536 -8.10587 16.75973 
5.61540 7.42707 -21.51570 
11.56411 -24.23876 1.36099 
-2.29812 24.70430 11.64366 
16.98095 -7.35519 10.76721 
-11.68671 -15.60101 9.38619 
20.61023 5.23350 12.12017 
15.03706 -11.98191 -7.60483 
-12.55454 24.68795 3.74005 
24.93467 -4.48209 -11.45194 
7.91118 12.16325 2.62625 
13.08938 7.18397 24.33016 
-20.05229 -3.37579 -5.83667 
25.56757 -8.62819 -9.44917 
2.81286 -6.10997 -11.05238 
-15.31125 -18.09473 5.17179 
-8.75718 16.91431 -2.70481 
-5.24141 -8.23213 26.46644 
-1.67868 -2.49052 -24.22881 
24.22194 13.98583 -6.49376 
-26.07562 -8.53666 5.49045 
-23.11916 -2.33951 -15.07501 
4.86805 18.67468 15.90863 
15.72729 11.13749 -5.80600 
-5.42583 -0.82589 -26.03640 
-15.02568 13.89730 -15.34020 
23.74466 -13.65508 1.35857 
6.12241 5.08351 -7.33522 
-0.32802 10.36054 2.33027 
10.66129 8.85179 -19.94247 
11.87024 -4.24915 -12.64149 
16.41976 -16.48949 -9.62777 
-1.44503 19.08552 -21.51513 
-13.22004 16.56023 12.44022 
17.99256 -14.91059 16.22443 
6.63146 20.66175 -18.69707 
-12.32489 -21.87024 -2.01853 
0.51713 -10.01121 -24.36897 
-9.40432 17.65760 6.10345 
-6.92861 24.29663 -5.44730 
4.27531 -5.38222 -15.14770 
16.83720 -3.82069 -7.02111 
-11.67148 3.82021 9.53782 
15.24017 4.69790 3.46190 
-2.81201 22.91310 -6.82645 
-10.99426 11.63670 6.19474 
-2.83146 -10.65594 15.85336 
-4.71819 18.17179 -17.10249 
0.34574 0.40156 26.07360 
-11.46860 12.49924 -18.67603 
-0.61889 -22.49075 -19.32922 
-3.74159 25.11643 9.77256 
6.85748 15.43815 -21.64921 
3.96019 -16.82417 -10.00337 
-7.23638 8.89898 -4.66469 
8.61713 11.68782 21.35018 
4.66690 -6.59322 12.17312 
14.15828 9.67041 -15.43306 
-2.53660 -16.24319 12.52897 
-18.54919 -7.16706 -19.70052 
-15.76385 -14.39031 -18.82675 
19.43636 21.37041 -7.24583 
10.31081 -9.04516 -9.41778 
15.55689 -14.22033 -19.05511 
13.09241 -0.75853 12.85241 
-4.34228 -13.14940 8.68788 
-5.76419 26.55692 -8.92405 
4.85397 2.66171 -11.59826 
-18.72979 4.44419 18.59680 
-23.22597 -2.07396 5.63337 
-15.07700 16.21165 9.70225 
-19.34711 11.77485 13.76332 
23.59461 -10.56705 -0.12306 
-12.59892 5.33924 15.95672 
-23.39629 -15.24487 1.95472 
-5.11883 8.28312 -7.58521 
-24.78414 5.89167 -7.31061 
5.62503 4.88595 28.86479 
-1.16358 -22.06114 -6.57550 
-12.29817 -12.41421 -14.07988 
13.82729 -0.35549 -2.93232 
-4.51118 16.60153 -3.83387 
-9.91361 2.79217 21.93126 
-14.14168 -10.52214 10.46824 
12.56469 5.90048 26.58041 
21.17019 -7.32476 2.67457 
11.63654 7.20046 11.48545 
-16.54969 -15.24207 2.08065 
-21.86606 -11.91206 10.06278 
3.73715 -0.41968 14.09659 
2.97665 7.03069 -21.50389 
-3.11731 -6.12499 7.96929 
18.36257 -8.71939 -17.16313 
-0.96279 11.45818 16.52232 
-2.63613 -15.12711 16.53730 
4.62525 -28.28144 5.15255 
-2.99876 -3.45496 -20.45991 
-14.57765 3.83398 24.34024 
-16.57092 -18.91876 -1.16309 
5.47468 9.67009 25.69409 
-3.83455 -22.44045 16.63083 
3.48843 -10.94929 -13.46567 
-15.59816 -0.11788 10.99571 
7.73949 -1.16475 19.59302 
-1.68799 14.08936 2.19736 
5.92283 4.32204 5.23683 
17.14477 12.79112 -10.06920 
4.26768 -9.08139 3.76195 
-0.49655 21.80124 1.75850 
4.34594 -1.63586 -18.53071 
4.36494 -28.73739 -6.01792 
17.34403 -11.92060 -15.22143 
5.48689 -7.41702 22.02192 
8.88937 -8.76937 -15.26887 
19.07277 -2.90537 8.39953 
-2.74496 -13.53454 -6.27574 
-20.11650 5.18331 5.12311 
-18.59271 -5.39750 -20.67129 
-16.73673 5.75627 2.16302 
17.88404 -4.55386 -12.93128 
-9.25625 26.36888 6.74859 
-25.80571 -3.29628 9.41922 
4.40781 -23.94106 8.89067 
-5.33626 16.41582 16.69800 
21.55412 0.25104 -2.82870 
-22.87182 4.33685 -2.64210 
25.37062 -13.69732 -0.14998 
21.35463 1.96304 3.26472 
-7.59334 -25.73216 5.76986 
-0.51295 -8.62875 -19.02872 
-9.68976 -24.23244 2.42770 
-9.90287 -0.96155 21.98196 
-6.71114 5.46390 -23.33163 
20.41545 4.61182 -11.86106 
8.42555 -8.76258 21.88607 
-16.76961 -8.44735 -19.22021 
-17.48986 -7.09227 -14.47645 
-16.10604 -6.99338 -10.07661 
-21.75394 -5.03838 -7.91028 
12.71115 -5.99056 15.35864 
-5.69601 -5.22312 -27.75719 
26.57703 6.95072 11.90992 
-13.80454 4.32775 4.27943 
-3.22431 -13.98816 -4.60684 
14.55340 -6.41458 -9.16197 
-16.61621 4.63975 23.14837 
-1.41230 -19.56042 -7.53775 
23.01548 -12.31161 -10.34601 
-26.76445 -5.39148 -9.07292 
-8.71536 15.43055 2.34468 
-0.36973 -29.84994 0.26614 
3.02383 -2.83839 -13.89321 
15.29850 6.72243 -12.18527 
3.40189 -11.71062 -3.26175 
-6.90541 10.20462 -22.89114 
-14.97139 11.93850 -4.98255 
-7.56231 -22.42233 0.91927 
-2.95592 16.92550 -1.61724 
-4.07104 12.69880 -24.04693 
25.57824 10.75303 4.39984 
4.38837 -14.76495 9.25290 
-14.78831 -6.70773 -20.41231 
22.75932 6.05407 -10.24012 
-3.61041 21.92686 2.23435 
2.40149 2.75507 -10.83555 
5.96776 -10.23461 25.42683 
4.36382 -3.85260 -14.90035 
0.94148 19.35681 14.86489 
2.04737 3.70152 3.78385 
7.55942 2.64371 -16.43136 
-3.39433 -12.51056 -5.79630 
9.63020 20.84204 -2.46933 
-5.05671 2.65626 23.01808 
-25.54160 -13.22415 -0.51409 
-14.55652 0.16212 -10.07313 
22.54443 -10.99198 5.89494 
22.42882 17.93963 0.71979 
-4.71847 -17.34674 16.93462 
7.73172 -12.82329 -12.20421 
-12.96946 12.45228 4.29233 
-13.70047 5.12732 4.26640 
12.30593 19.25180 6.00528 
-23.88761 -13.05913 -3.33479 
15.26206 17.58843 12.20955 
1.69565 -14.38797 15.39200 
-12.07052 -10.31657 16.94392 
-6.35873 -3.02601 -13.22353 
20.30282 -1.56680 3.03033 
3.29357 -12.29414 16.43009 
15.05744 -16.65133 -6.12731 
-0.17293 13.86726 19.47329 
0.31557 8.94467 -14.38306 
-5.39472 6.48730 22.25189 
20.22355 2.47879 20.31001 
0.50429 -4.36414 28.42711 
10.35423 -9.20937 -3.31174 
9.29327 -6.86983 9.16045 
9.00224 1.31306 0.00654 
7.30338 2.81568 2.60289 
-1.42006 -7.72788 -22.51625 
25.89426 -13.97145 -5.35975 
-16.14992 -12.38778 -6.43435 
-0.42521 -16.44933 -7.88249 
-5.79810 -8.71796 10.69852 
17.47438 11.37349 15.89383 
-0.25978 -4.33769 -15.09202 
0.06403 -23.04466 -10.35077 
26.38285 9.05238 4.19415 
-5.67658 18.84689 13.81069 
-4.24182 12.60115 -5.79823 
23.64120 9.60727 13.25027 
-21.02728 3.42785 19.47787 
20.28497 0.82832 21.97749 
-8.70913 -8.64923 27.30405 
23.83232 2.13071 -13.06208 
-5.77360 -6.88421 24.94017 
-3.70173 10.17387 2.75324 
-7.93429 9.83175 -24.72929 
-19.65560 -20.20789 2.82593 
-6.76412 -0.51885 -23.86331 
-2.13369 -2.94222 -6.30204 
25.32794 6.45211 6.28003 
-18.37374 -10.17474 16.94235 
15.27184 18.03570 -1.89270 
-16.83706 -0.48432 -13.95147 
11.27634 10.45381 -4.29468 
-6.71893 24.87423 10.91293 
14.60184 15.85236 7.24301 
-17.92204 -7.46909 -9.97394 
19.73753 -10.64564 -12.17620 
18.76911 -2.20513 11.21037 
-0.83103 13.55382 23.79854 
-4.48401 -18.78970 15.79740 
4.57343 5.92480 17.31714 
-8.57088 3.14237 -17.18177 
-19.95176 20.54164 -5.17066 
0.05451 19.63465 -3.62018 
10.67158 7.76455 -15.44387 
-1.03816 8.71691 21.72503 
[...]
CELL_DATA 2734
SCALARS Fiber_Strain double 
LOOKUP_TABLE default 
0.00003
-0.00008
-0.00003
0.00005
0.00062
-0.00450
0.00005
-0.00000
0.00010
-0.00239
0.00018
-0.00660
0.00001
-0.00000
0.00009
-0.00001
-0.00000
0.00014
-0.00009
-0.00001
-0.00028
-0.00002
0.00001
0.00011
-0.00007
0.00021
0.00001
0.00029
0.00003
0.00000
-0.00013
-0.00194
-0.00009
0.00005
-0.00002
0.00027
-0.00001
0.00036
0.00018
0.00026
-0.00103
-0.00041
0.00002
-0.00005
-0.00001
-0.00013
-0.02176
-0.00000
0.00292
0.00002
0.00005
-0.00007
0.00009
-0.00002
0.00002
-0.00000
0.01305
-0.00002
0.00013
-0.00039
0.00226
0.02658
-0.00028
-0.00011
0.00026
0.00018
0.00001
0.00007
-0.00060
-0.00036
0.00138
0.00008
-0.00012
-0.00004
-0.00286
-0.00718
0.00017
-0.00005
-0.00002
-0.12027
-0.00001
0.00005
0.00001
0.00039
-0.00180
0.00007
-0.01362
-0.00125
-0.00049
0.00001
0.00276
0.04819
-0.00017
0.00036
-0.00345
-0.00051
0.00000
-0.00086
-0.00026
0.00051
-0.00814
-0.00009
-0.00002
-0.02238
-0.02072
0.00005
0.00003
-0.24880
-0.00652
0.00018
-0.00526
-0.00017
-0.00018
-0.00005
-0.02744
0.00005
-0.00020
-0.04728
0.02830
0.00007
-0.00000
0.00314
0.00974
-0.12983
0.00016
-0.00061
-0.01826
0.07932
-0.00355
-0.00143
-0.08234
-0.00003
0.00000
0.02053
-0.00414
-0.00008
-0.00001
-0.00002
-0.00020
0.00028
-0.00021
0.00005
-0.00003
0.00009
-0.00033
0.00029
-0.00010
0.00025
-0.00000
-0.00000
-0.01067
-0.03807
-0.00006
0.00004
0.02292
0.00003
0.00028
-0.02484
-0.00110
-0.00007
0.00359
0.00013
-0.00044
-0.00001
0.02215
-0.00029
0.00001
-0.00000
-0.00002
-0.00091
-0.03044
0.00067
-0.04975
-0.00174
0.00001
-0.00003
0.00365
0.00611
-0.00047
-0.00010
0.00003
-0.00041
-0.00408
-0.03656
-0.02655
0.00003
0.00009
-0.00013
-0.00185
-0.00012
0.00001
0.00002
-0.00024
-0.00026
-0.00018
0.00020
-0.00137
-0.00073
0.00022
0.00269
0.00057
0.09847
0.00013
-0.14270
-0.00003
-0.00101
0.01435
0.00488
-0.01823
0.02440
-0.12312
0.05673
-0.00077
0.00143
-0.00658
-0.00017
-0.00022
-0.00020
0.00012
-0.04306
0.00164
-0.00103
-0.01031
-0.20722
0.02963
-0.02003
-0.00008
0.00002
0.00029
-0.00020
-0.00004
0.00002
-0.00643
-0.00111
-0.00018
0.00114
-0.00016
0.00011
-0.00089
0.01214
0.00756
0.00002
0.00048
-0.00001
-0.00024
-0.00028
-0.00003
0.00001
-0.00005
0.00034
0.00012
-0.00015
-0.00016
0.04914
0.00964
0.00044
-0.00006
0.00182
0.00001
-0.00002
-0.00026
0.00251
-0.00005
-0.00120
0.00046
0.03078
0.00335
0.00032
-0.00462
0.02192
-0.00001
0.00008
-0.00004
0.00004
0.00024
0.00057
0.00000
0.00016
-0.00008
0.00005
0.00036
-0.00009
-0.00111
0.00291
0.00222
-0.00148
-0.00021
-0.00753
-0.00005
-0.00218
0.00001
0.00014
-0.01431
-0.00006
0.00063
0.00019
-0.00010
-0.02605
-0.00006
-0.00006
-0.00171
0.02646
0.06289
-0.00015
-0.01268
-0.00422
-0.00015
-0.00009
0.00016
-0.02279
-0.00009
-0.00011
-0.00012
-0.00034
-0.00091
-0.00028
0.00128
0.00013
-0.00001
0.02438
0.00033
-0.00004
0.00124
0.00000
-0.00074
-0.00030
0.16285
0.00009
0.00018
0.00014
-0.03553
-0.00007
0.00002
0.04636
-0.00048
-0.00000
-0.00054
-0.00155
-0.02051
-0.00037
-0.00001
-0.04965
-0.00017
0.00521
-0.00097
-0.00049
0.00008
-0.02596
-0.08674
-0.01279
0.00059
-0.00011
-0.00001
-0.00017
-0.02538
0.00084
-0.00002
-0.00130
-0.00002
-0.00098
-0.02315
0.00000
0.00000
0.00004
-0.00227
-0.13715
0.00012
0.00012
0.00006
-0.00001
-0.00006
0.05226
-0.00115
-0.00013
-0.00272
-0.00001
0.00787
0.00003
-0.00001
-0.00084
0.14427
-0.06748
0.00011
-0.00001
-0.04486
0.00046
0.00148
0.00268
-0.00198
0.00008
0.00001
0.01419
0.00004
-0.00457
0.00011
-0.00001
-0.00236
0.00027
-0.00002
0.00021
0.00015
-0.00032
-0.01167
0.02580
0.07454
-0.18078
0.04400
-0.00004
0.00005
0.00589
-0.06654
-0.00468
-0.01152
-0.00062
-0.00153
-0.00029
-0.01538
0.00006
-0.00006
-0.00489
-0.00097
-0.06286
0.00001
0.21466
-0.00072
-0.00121
-0.08082
0.04920
0.03662
-0.00092
0.00244
0.00002
-0.00001
-0.00002
0.00033
0.00002
0.04961
-0.00061
-0.00013
-0.00176
-0.00038
0.04287
-0.02094
-0.00046
-0.00009
-0.00139
-0.00224
-0.00014
0.00115
-0.00028
-0.01911
-0.00344
-0.00000
-0.00031
-0.01425
0.00154
0.00523
-0.00000
-0.00006
-0.00042
-0.00017
0.00001
-0.00017
0.00012
0.08698
-0.01724
0.00011
0.01245
0.00003
-0.00088
-0.00411
-0.00007
0.00068
-0.01102
-0.00004
0.07289
-0.00374
0.00003
-0.00400
0.00022
-0.00004
0.00006
-0.00546
0.00013
-0.00009
0.00003
0.00026
0.00009
-0.00265
0.00250
-0.00361
-0.00550
-0.00062
-0.00065
0.03958
0.00001
-0.00001
-0.00241
0.00003
0.04799
-0.00008
-0.00001
-0.00044
0.00015
0.03444
-0.00911
-0.00000
0.00707
0.00755
0.01894
-0.00732
-0.00537
0.00000
0.00013
0.00002
-0.00019
-0.00009
0.00005
-0.00020
-0.05553
0.00066
-0.07265
-0.00016
0.00007
0.00311
-0.07564
-0.00063
0.01088
-0.00005
0.04255
-0.00001
0.00229
-0.00001
-0.00024
-0.00006
-0.01069
-0.00278
-0.09657
0.00023
0.00395
-0.00088
0.00061
0.01346
0.00002
-0.03043
-0.00097
-0.00029
0.03823
0.01306
0.00010
0.00017
-0.00006
0.00044
-0.00120
0.00065
-0.06320
0.00969
-0.00354
0.00013
0.00013
-0.00007
-0.00010
0.00765
-0.00062
0.00006
0.00009
-0.00024
0.00057
0.00015
-0.00013
-0.00027
-0.11284
-0.00011
0.00067
0.01687
-0.00082
0.00122
0.01348
-0.00002
0.02828
0.00325
-0.00459
0.00019
-0.00024
-0.00301
0.13023
-0.00056
0.00007
0.00006
-0.00003
-0.13036
-0.00004
0.00016
-0.00028
0.00079
0.00028
-0.00002
-0.00017
0.00050
0.02790
-0.00077
0.00088
0.00060
-0.00160
0.00002
0.00077
0.00228
0.00327
-0.00679
0.00031
0.00561
0.00542
-0.00009
-0.10482
-0.00001
0.00019
-0.00009
-0.00008
0.00002
-0.00001
-0.00003
0.00000
0.00008
0.01942
-0.00019
0.04799
-0.00067
-0.00013
0.00041
0.00288
0.00001
-0.00035
0.03264
-0.00006
0.00154
0.00007
0.00354
0.00369
-0.00023
0.00415
-0.00044
0.00059
0.00003
-0.00032
0.03373
-0.01762
0.00006
-0.01598
0.05654
0.00007
-0.03791
0.00015
-0.00003
-0.00924
0.00003
0.00591
-0.00032
0.00037
-0.00625
-0.00060
-0.00011
-0.00071
0.00016
-0.00279
-0.00185
0.02667
-0.00004
-0.01510
-0.00032
-0.00003
-0.00001
0.00015
0.00714
0.03569
0.00004
0.00067
0.01985
0.00648
-0.00004
0.01486
-0.00658
0.00010
0.00449
-0.00023
0.00018
0.11794
-0.00019
0.00004
-0.00006
-0.00022
0.00003
-0.00432
-0.00189
-0.04446
-0.00000
0.00007
-0.00001
-0.00008
-0.00001
-0.00002
0.00125
-0.00720
0.00005
-0.00162
0.01308
-0.00000
-0.00005
-0.00414
0.00006
0.00007
0.00041
0.00003
0.00190
-0.02807
0.00222
-0.00002
0.07539
-0.00069
-0.00022
-0.00065
-0.00027
-0.04778
0.02162
0.02587
0.01600
0.09418
-0.00004
0.01767
0.00108
0.00757
-0.00002
0.00006
-0.03332
0.00008
-0.00606
-0.00004
-0.00013
-0.00152
-0.00037
0.00008
-0.00006
-0.00052
0.00071
-0.00092
-0.00005
-0.00000
-0.00183
-0.00003
-0.02893
-0.00001
0.00032
-0.01248
0.04790
-0.00028
0.00006
0.00543
-0.00009
0.00129
0.00027
0.00002
0.07564
0.00001
0.00310
-0.00015
0.02158
0.02263
0.00003
-0.00008
0.00008
0.00659
0.00004
0.00231
0.00102
0.00160
-0.00000
0.00004
0.00005
0.00024
0.02375
0.00030
0.00041
0.00095
0.00012
-0.00716
0.01789
-0.00008
-0.00128
-0.00023
-0.00008
-0.03175
0.04565
-0.00014
0.04038
0.00004
-0.00074
0.00089
-0.02291
0.00393
0.01582
-0.01287
0.00001
-0.00006
-0.00093
-0.00008
0.02971
0.00001
-0.00041
0.00001
-0.00019
-0.00031
-0.00001
0.00005
-0.00016
0.00012
-0.00036
0.00011
-0.00036
-0.00044
0.00004
0.00014
-0.00054
-0.00179
0.00021
-0.00023
-0.00001
0.00000
-0.02075
0.00001
-0.02098
0.00014
0.00110
-0.00002
-0.00011
-0.00709
-0.00013
-0.00020
0.00001
-0.00009
0.00001
-0.00004
-0.00035
0.00007
-0.00004
0.00033
-0.00002
0.07071
0.00010
0.00184
-0.00003
-0.00023
-0.01648
0.00178
-0.00682
-0.00000
0.00013
-0.04911
0.00005
0.01173
0.00001
0.00002
0.01144
-0.00001
0.00073
-0.00030
-0.03061
-0.00001
0.00052
0.00683
0.00515
0.00010
-0.00187
-0.00412
-0.00068
-0.01982
0.00032
0.00060
0.00003
-0.01364
0.00044
-0.00051
-0.00005
0.00011
-0.00001
0.00063
-0.00052
-0.00012
-0.00000
0.00032
0.00694
-0.00030
-0.00010
-0.00854
0.00013
-0.02105
0.00027
-0.00003
0.00005
0.00256
0.00002
0.00000
-0.00026
-0.00035
-0.02735
-0.00095
-0.00136
-0.00032
0.00024
-0.00052
-0.00003
0.00050
0.01546
0.13601
-0.00009
-0.01059
-0.00001
-0.00060
-0.00008
-0.00015
-0.00015
0.00009
-0.00049
0.00038
0.00002
0.00098
0.00051
-0.02261
0.00036
0.00002
0.02425
0.00000
0.00014
-0.01227
-0.00064
-0.00559
0.00017
-0.00111
-0.00023
-0.01074
-0.01795
-0.00011
0.00008
0.00001
-0.00002
0.02520
0.06375
0.00019
0.00002
0.01092
0.00000
0.00145
0.00012
0.00060
-0.00019
0.00004
-0.01194
-0.00016
-0.00028
0.00109
-0.00005
0.00004
-0.00002
-0.00098
-0.02203
0.00020
-0.00004
-0.00264
-0.00020
-0.00030
-0.00122
0.00023
-0.00003
0.00004
-0.00002
0.00048
0.00026
0.00009
0.00009
0.00011
0.03221
-0.00029
0.00068
0.01699
0.00000
0.02562
-0.07733
-0.00007
0.00391
-0.00007
-0.00025
-0.00003
0.00012
-0.00016
-0.00000
-0.00262
-0.00032
0.00012
0.00008
-0.00047
0.00003
-0.00575
0.01323
0.00001
0.00057
0.00003
-0.01316
0.00001
0.00187
-0.00017
0.00058
-0.00055
-0.00055
-0.00038
-0.00008
-0.00037
-0.03977
0.00119
0.00000
-0.00077
-0.00002
-0.00000
0.00009
0.00010
-0.06049
0.00039
-0.00104
-0.00003
-0.00010
-0.00022
-0.00039
-0.01602
-0.02670
-0.00735
0.00001
-0.00056
-0.00095
0.00030
-0.00119
0.00002
-0.00002
-0.00005
-0.00132
-0.00168
0.00171
0.00007
0.00010
0.00003
0.00251
-0.00004
0.00000
0.05247
-0.00458
-0.00004
-0.00180
0.00035
-0.00029
0.00024
-0.00439
0.07615
0.00143
0.00009
-0.01518
-0.00022
0.00007
0.00026
-0.01825
-0.00000
0.05938
0.09421
-0.01519
0.00069
0.00002
-0.00005
-0.00033
0.00003
0.00002
0.00005
0.00002
-0.00014
0.00016
0.00008
0.00002
-0.08914
0.00238
0.00020
0.00053
0.00021
-0.00005
0.00010
-0.00011
0.00019
-0.00001
-0.00012
0.00057
-0.00013
0.00017
-0.00005
-0.00017
0.05626
-0.00000
0.00000
0.00021
0.00000
-0.00038
-0.00000
0.00011
0.00009
0.00255
-0.00007
0.00073
-0.00029
-0.00085
-0.00021
0.01828
-0.00066
0.00001
-0.00073
0.00278
-0.00077
0.00007
-0.00022
0.00043
-0.00011
0.00605
0.07867
0.00002
0.00040
-0.00166
-0.00009
-0.00001
0.00000
-0.00004
0.00023
0.00144
-0.03689
-0.00318
-0.00256
-0.00007
-0.11631
-0.00503
-0.14912
-0.00018
0.00000
-0.00006
-0.00009
-0.00080
-0.00055
0.00111
-0.00003
0.00004
-0.04177
0.03459
0.00004
-0.00004
0.00406
0.00054
0.00239
-0.00118
0.00013
-0.00001
-0.00014
0.00005
-0.00930
0.00019
0.00539
0.00000
0.03651
0.00515
0.00029
0.00012
-0.00004
0.00113
0.00004
0.00017
-0.00886
-0.01493
-0.00083
-0.00883
-0.00046
0.00038
-0.00048
0.00015
-0.00053
0.00151
0.00007
0.00045
-0.00096
-0.00007
-0.00019
0.00014
0.00095
-0.00003
0.00009
-0.00150
-0.00011
0.00032
-0.00022
-0.02855
-0.00010
0.00001
-0.00223
-0.00100
-0.00038
0.22284
0.00016
-0.05238
0.00110
-0.00007
0.03852
0.00016
-0.00011
-0.00035
-0.00181
0.00050
-0.00045
0.00457
-0.00009
0.00017
-0.00002
-0.01489
0.00004
-0.00346
-0.00170
0.00004
0.00020
0.00018
-0.00002
0.00196
0.00192
-0.00052
0.00011
0.00019
-0.00124
-0.01807
-0.00141
0.00002
0.00000
-0.01697
-0.01164
-0.00071
0.00016
0.00039
0.00002
-0.00004
0.00037
-0.00782
-0.00081
-0.00028
0.00047
0.00006
-0.00017
0.00447
-0.07127
-0.01052
-0.00010
-0.00001
0.08092
0.01170
-0.00025
0.00028
0.00015
0.00017
-0.00587
0.01553
-0.00005
-0.00012
-0.00000
-0.00064
-0.00003
0.00011
-0.00060
-0.00003
-0.00017
0.00007
0.00005
0.00027
-0.00051
0.00013
-0.00000
0.00001
0.00024
0.00047
-0.00005
0.00085
0.05654
-0.00062
-0.00491
0.00391
0.00042
-0.00023
0.00003
-0.00119
-0.00001
-0.00026
-0.00013
0.00015
0.05835
0.00003
-0.00419
-0.00240
0.09413
-0.01080
-0.00005
0.00012
0.00023
-0.00025
0.00010
0.00071
0.00012
-0.00064
-0.00032
-0.02709
0.00008
0.00043
0.06813
-0.00015
0.00016
0.00024
0.00000
0.03378
0.04932
0.00026
0.01492
0.00104
-0.05281
-0.00003
0.00006
0.00069
0.00010
-0.00003
0.00059
0.00012
-0.00008
0.01535
0.00434
-0.00121
-0.05709
0.00001
-0.00000
-0.00025
0.00159
0.00033
-0.00012
-0.00005
-0.01173
-0.03562
-0.01158
-0.00004
0.00003
-0.00166
-0.00000
-0.00358
0.00029
0.00059
0.06430
-0.00020
-0.00002
0.00010
-0.00036
0.00005
0.00134
0.00003
-0.00163
-0.00004
-0.00569
0.00085
-0.00002
0.00020
0.00434
-0.00022
-0.00027
0.00023
-0.00000
-0.00002
-0.00127
0.00000
-0.00098
0.00004
0.05736
0.00003
0.00423
0.00000
-0.00004
-0.01192
0.00031
0.00010
0.00000
-0.00001
0.01655
0.03559
-0.00000
-0.01303
0.00004
0.00008
0.00048
-0.00001
-0.00007
0.00007
0.00077
-0.00000
0.00145
-0.00005
-0.00003
0.00116
-0.00003
-0.00013
-0.00012
-0.00246
-0.00073
-0.06322
-0.00102
0.00003
0.00046
0.00608
-0.00126
-0.00113
-0.00026
0.00400
-0.01776
-0.02871
-0.00826
0.00005
-0.03462
0.00050
-0.00016
0.00109
-0.00097
-0.00219
-0.02279
0.00082
0.00024
-0.00017
-0.00158
-0.00496
0.00031
0.00011
0.00166
-0.00441
0.00007
-0.00024
0.00019
-0.00003
0.00003
-0.00000
0.00500
-0.00018
-0.00008
-0.00003
0.00188
-0.00011
0.00010
-0.00383
0.00033
-0.00162
-0.03365
-0.00011
-0.00011
0.00009
0.00000
0.00003
0.00221
0.01163
0.00158
-0.00375
0.00009
-0.00234
-0.00028
-0.00150
-0.00004
-0.00009
-0.00159
-0.00008
0.00012
0.00569
-0.00429
-0.01318
-0.00013
0.01412
0.00012
0.00244
-0.00013
-0.00005
0.00020
-0.00102
-0.00009
0.00005
-0.00000
0.00007
0.00002
0.00003
-0.00022
0.00023
-0.00001
-0.00239
-0.00006
-0.00062
-0.00011
-0.00002
-0.04507
0.00039
0.00006
-0.00001
0.00021
0.00038
0.00004
0.00011
-0.04054
0.00119
0.00158
0.00008
0.00228
0.00037
0.00008
0.00469
0.00577
0.00009
-0.00001
0.00004
-0.00003
-0.01538
-0.00135
-0.00003
-0.02567
-0.00017
-0.00004
0.00033
-0.00305
-0.00088
-0.00243
0.00084
-0.00507
-0.00028
-0.00043
-0.00000
-0.00008
-0.00014
-0.00089
-0.00048
-0.00000
0.00010
-0.00001
-0.00014
-0.00055
-0.01779
0.00000
-0.00001
0.04759
0.00011
0.12869
0.00019
0.00002
-0.00006
0.00013
-0.00128
-0.00030
-0.00085
0.00015
-0.02798
-0.00005
0.00009
-0.00089
0.00024
-0.00010
0.05300
-0.00015
-0.00063
-0.00081
-0.00003
0.00003
0.00008
-0.01424
0.04799
0.00006
0.00061
-0.00030
-0.00419
0.00042
0.00027
0.00066
-0.00095
0.00000
-0.00522
-0.00002
-0.00032
-0.00090
-0.00012
-0.00602
-0.05472
-0.00000
0.00014
-0.00051
0.01685
-0.01141
0.00018
-0.01933
0.00018
0.00733
-0.00000
-0.01995
-0.00732
-0.00520
-0.00010
-0.00018
-0.00020
0.00003
-0.00006
-0.04226
0.00001
-0.00003
0.00004
-0.01118
0.00010
-0.00027
-0.00025
0.00001
-0.00013
-0.01252
-0.00004
-0.00006
-0.00002
0.01819
-0.03450
-0.00108
-0.00022
0.00038
-0.00304
0.02345
0.05552
-0.00001
0.03057
0.00017
0.00109
-0.00766
-0.00027
0.02616
0.00000
-0.01515
-0.00039
0.00009
-0.00461
-0.00599
0.00066
0.00007
-0.02362
-0.00012
-0.00016
0.00489
0.00006
0.00009
0.00049
-0.00018
0.00000
-0.00002
-0.00368
-0.00128
0.01664
0.00080
0.04516
0.00017
-0.00009
0.00002
-0.03033
0.00639
-0.00110
0.00013
-0.00000
0.00020
0.00081
-0.00109
-0.00232
-0.00069
-0.00154
0.00077
-0.00105
0.00019
-0.00010
-0.05242
-0.00333
0.00261
0.02903
0.00240
0.00015
-0.04677
0.00007
0.00043
0.02638
-0.07764
-0.00000
-0.00003
-0.00010
-0.00003
-0.00001
0.03601
0.00025
-0.07191
0.00028
0.00107
-0.00969
-0.01807
0.00035
-0.00000
0.00025
0.00078
0.00000
0.00053
-0.00002
-0.00008
0.00012
-0.00105
0.00027
-0.00950
-0.02383
0.00078
0.00005
-0.00000
-0.00081
-0.00004
0.02595
-0.00015
0.00020
0.04470
-0.00029
0.00017
-0.00006
-0.00000
-0.00025
-0.00010
0.00016
-0.01888
-0.00076
0.00018
-0.00001
0.00084
-0.00035
0.00058
0.00025
-0.00441
0.00033
-0.00104
0.00016
0.00012
0.00051
0.00021
0.00812
0.00003
-0.00032
0.00000
0.00003
0.00164
0.00326
0.00056
0.00012
-0.00082
-0.00253
-0.00020
0.00022
0.00021
0.04704
0.00286
0.00898
-0.00001
0.00004
0.00047
0.00035
0.00003
0.00055
0.00003
0.00003
-0.00111
0.01456
0.00038
-0.00002
0.00012
-0.00027
-0.00075
0.00009
-0.02376
-0.00000
0.00026
-0.00002
-0.00477
0.07445
-0.00001
0.00003
0.00172
0.01030
0.00012
0.00746
0.00019
-0.00004
-0.01560
-0.00900
-0.00012
-0.00004
0.00113
0.00037
-0.00002
-0.00044
-0.00718
0.00005
-0.00005
-0.00198
-0.00066
0.00017
0.00004
0.00050
-0.00059
0.00004
0.00127
-0.00000
0.00000
-0.00046
0.00061
-0.00000
-0.00011
0.00004
-0.00012
0.00000
0.00004
-0.03558
0.00130
0.00017
0.00050
-0.01155
0.00008
0.00111
-0.00066
0.00000
-0.00247
0.00105
-0.00003
-0.00348
0.00450
-0.00022
-0.00822
-0.00024
0.00011
-0.00005
0.00006
0.00000
0.02020
0.00001
0.00041
0.00008
-0.00010
0.00037
0.00004
-0.00003
0.00008
-0.00009
-0.00031
0.00011
-0.00001
-0.00604
-0.00003
0.00016
-0.00001
0.00005
0.03512
0.00003
-0.00094
0.00017
0.00005
-0.00060
-0.00024
0.00036
0.00006
0.03362
-0.00026
0.00000
0.01180
0.00046
0.03569
0.00043
0.00016
0.00013
-0.02119
0.00002
0.00017
-0.00000
0.00001
0.00023
-0.00229
0.02533
0.01506
-0.00117
-0.00003
-0.00005
0.00067
-0.00461
0.00003
-0.00012
-0.00001
-0.00610
0.00020
0.00001
-0.00682
-0.00069
0.00024
-0.00040
0.00025
-0.00004
-0.00279
-0.00005
0.00004
0.00163
-0.00472
0.00201
0.00008
0.00140
0.00023
0.01776
-0.00347
-0.00002
-0.00224
0.00006
-0.00006
0.00019
-0.00003
0.00010
0.00026
0.00020
0.00042
-0.00156
-0.00006
-0.00001
-0.00986
-0.00014
-0.00115
0.05721
0.02325
0.00055
-0.00011
-0.00079
-0.01143
0.00265
-0.00160
0.00037
0.00199
0.00008
0.00237
-0.00010
0.00234
-0.03062
0.00002
-0.00004
0.00047
-0.04301
-0.00665
0.00091
0.00000
-0.00172
0.00004
-0.00196
0.00004
-0.00002
0.00423
0.00005
0.00007
-0.00000
-0.01409
0.00026
0.00112
0.00440
-0.00028
0.00004
-0.00002
0.00762
-0.00180
0.00155
0.00025
-0.00003
0.00011
-0.09117
-0.00003
0.00118
-0.00301
0.00068
-0.04014
-0.00004
-0.02407
0.00053
-0.00145
0.00037
-0.00002
-0.00003
0.00023
-0.00009
0.00003
0.00002
-0.00018
0.00109
-0.00051
-0.00013
0.00442
0.00886
-0.08087
-0.00006
-0.00018
-0.00001
0.01705
-0.00117
0.00192
0.00108
0.00018
0.01392
-0.00208
0.00011
0.00001
0.04954
0.06258
-0.00181
0.00008
0.00004
0.00901
-0.00011
0.00008
0.00202
0.00053
0.00000
-0.00916
0.00140
0.00012
0.00192
-0.00011
0.00189
-0.00002
0.00022
0.00568
-0.00080
-0.00036
0.06640
-0.00367
-0.00015
0.00028
-0.00085
-0.00008
-0.00002
-0.00001
-0.01341
-0.00022
-0.03012
0.00002
-0.08916
-0.00012
0.04954
-0.00017
0.00142
0.00034
-0.03376
0.03629
0.02653
-0.00072
0.00131
-0.00153
0.07079
-0.00006
0.00026
0.00000
-0.00040
0.00028
-0.00289
0.00259
-0.00599
-0.00077
0.00001
-0.09028
-0.00282
0.00001
-0.00007
0.00005
0.00039
0.00005
0.00000
0.00020
0.00007
0.00106
-0.00003
-0.00004
-0.00000
-0.00035
-0.00003
0.00003
-0.00020
-0.00015
0.04058
-0.00004
0.07536
0.00089
0.02411
0.00000
-0.00084
0.00008
0.00010
-0.00015
-0.00073
0.00012
0.00005
0.00039
0.03638
0.02775
0.00237
0.00859
0.00578
0.00021
0.00027
0.00025
-0.01296
-0.01484
-0.00010
0.00164
-0.00001
0.06936
0.00003
-0.00014
0.00006
0.00019
0.00008
-0.03830
-0.00003
0.00461
-0.00051
0.00000
0.00038
-0.00227
0.00012
-0.00018
0.03328
-0.00021
-0.00003
-0.00562
-0.00254
0.00159
0.06609
0.00010
-0.00008
-0.00035
0.00100
-0.00005
0.00838
0.00001
-0.00027
-0.00016
-0.00021
-0.05055
-0.01375
0.00701
-0.00662
-0.00002
0.00001
0.00195
-0.00136
0.00016
0.05062
0.00008
0.00026
-0.00089
0.05565
-0.00036
-0.00005
0.00004
0.00016
-0.00056
-0.02060
0.00013
0.00227
-0.00004
0.00019
0.00006
-0.00001
0.00203
-0.02588
0.00041
0.00029
-0.00053
-0.00018
0.06022
0.00012
0.00022
0.02282
0.00422
0.00066
0.00010
-0.00075
-0.00026
-0.00053
0.00002
0.00083
0.03554
0.00013
-0.00162
0.00008
0.01442
0.00006
-0.00004
0.00026
-0.01254
0.00001
0.00001
-0.00083
-0.05583
0.00000
-0.00009
-0.00006
-0.00004
0.00008
-0.00040
0.00031
-0.00001
-0.00272
-0.00008
0.00160
0.00675
-0.00011
-0.00128
-0.00030
0.00009
-0.00000
0.01577
-0.00012
-0.00189
-0.02877
-0.00013
0.00021
-0.00005
0.02404
-0.05229
-0.03051
0.00001
0.00132
-0.00016
-0.00001
0.02594
-0.00002
-0.00002
0.00080
-0.00003
-0.00237
0.00002
0.24702
-0.01409
0.00014
0.00012
0.04276
0.00612
-0.00053
0.00035
0.00002
0.00002
-0.00057
-0.00010
0.00049
0.00449
0.00043
-0.00003
0.00018
0.00836
-0.00366
0.00126
0.00043
-0.00002
-0.00310
-0.00003
0.00015
0.00251
-0.00080
0.00002
0.00005
0.00007
0.00043
0.00004
0.00025
0.00007
-0.00010
0.00008
-0.00000
0.00004
-0.00188
-0.00004
0.00010
-0.00012
-0.00007
-0.00059
0.00689
-0.00000
-0.00004
-0.00089
-0.00008
0.02060
0.00115
-0.05630
-0.00009
-0.00006
0.06834
0.01763
0.00004
-0.00139
-0.03317
0.00003
-0.00341
0.00046
-0.00009
-0.00019
-0.00056
-0.00036
-0.00083
-0.00216
-0.00103
-0.00019
0.00001
-0.00000
0.00002
-0.00000
-0.00010
-0.00026
0.00001
0.00017
0.05801
-0.00009
-0.00071
-0.00213
-0.00029
0.00020
0.00512
0.00173
-0.00128
-0.00004
0.05995
-0.00003
-0.00086
0.01642
-0.00023
-0.00596
-0.00001
-0.00014
0.00009
0.00010
0.00024
-0.00216
0.00063
-0.00004